<?xml version="1.0" encoding="UTF-8"?>

<!-- generated by Eclipse SUMO sumo Version 1.12.0
<configuration xmlns:xsi="http://www.w3.org/2001/XMLSchema-instance" xsi:noNamespaceSchemaLocation="http://sumo.dlr.de/xsd/sumoConfiguration.xsd">

    <input>
        <net-file value="D:\Dokumente\sumo\maloja\simple.net.xml"/>
        <route-files value="D:\Dokumente\sumo\maloja\01_schools\persontrips_maloja_school_resolved_offseason_taxi_modded_with_parents.rou.xml,D:\Dokumente\sumo\maloja\02_work\persontrips_maloja_work_resolved_offseason_taxi.rou.xml,D:\Dokumente\sumo\maloja\04_shopping\persontrips_maloja_shopping_resolved_offseason_taxi.rou.xml,D:\Dokumente\sumo\maloja\05_seniors\persontrips_maloja_seniors_resolved_offseason_taxi.rou.xml"/>
        <additional-files value="D:\Dokumente\sumo\maloja\03_bus\virtualstop.add.xml,D:\Dokumente\sumo\maloja\03_bus\03_November\gtfs_pt_stops.add.xml,drt_fleet.xml"/>
    </input>

    <output>
        <tripinfo-output value="tripinfos_drt.xml"/>
        <tripinfo-output.write-unfinished value="true"/>
        <stop-output value="stopinfos_drt.xml"/>
        <statistic-output value="stats_drt.xml"/>
    </output>

    <time>
        <begin value="20520"/>
        <end value="77400"/>
    </time>

    <routing>
        <routing-algorithm value="CH"/>
        <persontrip.transfer.taxi-walk value="ptStops"/>
        <persontrip.transfer.walk-taxi value="ptStops"/>
    </routing>

    <report>
        <verbose value="true"/>
        <log value="simulation.log.txt"/>
        <error-log value="sumo_error.log"/>
        <duration-log.statistics value="true"/>
    </report>

    <taxi_device>
        <device.taxi.dispatch-algorithm value="traci"/>
    </taxi_device>

    <traci_server>
        <remote-port value="51698"/>
    </traci_server>

</configuration>
-->

<tripinfos xmlns:xsi="http://www.w3.org/2001/XMLSchema-instance" xsi:noNamespaceSchemaLocation="http://sumo.dlr.de/xsd/tripinfo_file.xsd">
    <personinfo id="w582" depart="21673.98" type="DEFAULT_PEDTYPE">
        <walk depart="21674.00" departPos="14.19" arrival="21837.00" arrivalPos="87.83" duration="163.00" routeLength="218.15" timeLoss="20.62" maxSpeed="1.53"/>
        <ride waitingTime="136.00" vehicle="taxi81" depart="21973.00" arrival="22213.00" arrivalPos="12.25" duration="240.00" routeLength="3860.52" timeLoss="29.64"/>
        <walk depart="22213.00" departPos="12.25" arrival="22355.00" arrivalPos="16.78" duration="142.00" routeLength="201.58" timeLoss="10.43" maxSpeed="1.53"/>
    </personinfo>
    <personinfo id="w61" depart="22187.91" type="DEFAULT_PEDTYPE">
        <walk depart="22188.00" departPos="19.10" arrival="22470.00" arrivalPos="2.10" duration="282.00" routeLength="301.00" timeLoss="16.13" maxSpeed="1.13"/>
        <ride waitingTime="10.00" vehicle="NULL" depart="-1" arrival="22480.00" arrivalPos="15.00" duration="22480.00" routeLength="-1.00" timeLoss="-0.00"/>
        <stop duration="0.00" arrival="22480.00" arrivalPos="3.79" actType="last stage removed"/>
    </personinfo>
    <personinfo id="w6" depart="21655.65" type="DEFAULT_PEDTYPE">
        <walk depart="21656.00" departPos="7.69" arrival="21725.00" arrivalPos="50.34" duration="69.00" routeLength="108.66" timeLoss="1.14" maxSpeed="1.60"/>
        <ride waitingTime="344.00" vehicle="taxi115" depart="22069.00" arrival="22568.00" arrivalPos="44.42" duration="499.00" routeLength="8581.90" timeLoss="54.23"/>
        <walk depart="22568.00" departPos="44.42" arrival="22731.00" arrivalPos="7.84" duration="163.00" routeLength="258.35" timeLoss="1.65" maxSpeed="1.60"/>
    </personinfo>
    <personinfo id="w38" depart="21758.69" type="DEFAULT_PEDTYPE">
        <walk depart="21759.00" departPos="2.32" arrival="21976.00" arrivalPos="7.50" duration="217.00" routeLength="350.06" timeLoss="-25.96" maxSpeed="1.44"/>
        <ride waitingTime="231.00" vehicle="taxi106" depart="22207.00" arrival="22717.00" arrivalPos="6.18" duration="510.00" routeLength="8924.32" timeLoss="60.99"/>
        <walk depart="22717.00" departPos="6.18" arrival="22742.00" arrivalPos="16.52" duration="25.00" routeLength="50.23" timeLoss="-9.87" maxSpeed="1.44"/>
    </personinfo>
    <personinfo id="w855" depart="22284.37" type="DEFAULT_PEDTYPE">
        <walk depart="22285.00" departPos="25.73" arrival="22294.00" arrivalPos="15.00" duration="9.00" routeLength="10.73" timeLoss="1.53" maxSpeed="1.44"/>
        <ride waitingTime="235.00" vehicle="taxi27" depart="22529.00" arrival="22794.00" arrivalPos="73.53" duration="265.00" routeLength="3260.43" timeLoss="49.73"/>
        <walk depart="22794.00" departPos="73.53" arrival="22829.00" arrivalPos="28.72" duration="35.00" routeLength="44.81" timeLoss="3.82" maxSpeed="1.44"/>
    </personinfo>
    <personinfo id="w550" depart="22400.84" type="DEFAULT_PEDTYPE">
        <walk depart="22401.00" departPos="3.92" arrival="22419.00" arrivalPos="16.58" duration="18.00" routeLength="30.62" timeLoss="-4.79" maxSpeed="1.34"/>
        <ride waitingTime="127.00" vehicle="taxi83" depart="22546.00" arrival="22792.00" arrivalPos="20.00" duration="246.00" routeLength="2553.90" timeLoss="31.00"/>
        <walk depart="22792.00" departPos="20.00" arrival="22869.00" arrivalPos="47.38" duration="77.00" routeLength="87.59" timeLoss="11.82" maxSpeed="1.34"/>
    </personinfo>
    <personinfo id="w592" depart="21912.99" type="DEFAULT_PEDTYPE">
        <walk depart="21913.00" departPos="7.53" arrival="22072.00" arrivalPos="23.94" duration="159.00" routeLength="192.82" timeLoss="13.58" maxSpeed="1.33"/>
        <ride waitingTime="325.00" vehicle="taxi81" depart="22397.00" arrival="22683.00" arrivalPos="25.48" duration="286.00" routeLength="3782.39" timeLoss="54.53"/>
        <walk depart="22683.00" departPos="25.48" arrival="22905.00" arrivalPos="12.26" duration="222.00" routeLength="276.80" timeLoss="13.24" maxSpeed="1.33"/>
    </personinfo>
    <personinfo id="w477" depart="21955.36" type="DEFAULT_PEDTYPE">
        <walk depart="21956.00" departPos="12.39" arrival="22482.00" arrivalPos="15.00" duration="526.00" routeLength="740.29" timeLoss="16.14" maxSpeed="1.45"/>
        <ride waitingTime="75.00" vehicle="taxi27" depart="22557.00" arrival="22923.00" arrivalPos="10.59" duration="366.00" routeLength="4088.81" timeLoss="56.09"/>
        <walk depart="22923.00" departPos="10.59" arrival="22948.00" arrivalPos="2.51" duration="25.00" routeLength="32.18" timeLoss="2.84" maxSpeed="1.45"/>
    </personinfo>
    <personinfo id="w517" depart="22041.84" type="DEFAULT_PEDTYPE">
        <walk depart="22042.00" departPos="100.89" arrival="22252.00" arrivalPos="14.90" duration="210.00" routeLength="287.22" timeLoss="5.60" maxSpeed="1.41"/>
        <ride waitingTime="158.00" vehicle="taxi27" depart="22410.00" arrival="22964.00" arrivalPos="15.00" duration="554.00" routeLength="5505.31" timeLoss="112.78"/>
        <walk depart="22964.00" departPos="15.00" arrival="22981.00" arrivalPos="11.81" duration="17.00" routeLength="32.09" timeLoss="-5.83" maxSpeed="1.41"/>
    </personinfo>
    <personinfo id="w692" depart="22314.00" type="DEFAULT_PEDTYPE">
        <walk depart="22314.00" departPos="11.02" arrival="22351.00" arrivalPos="37.39" duration="37.00" routeLength="51.60" timeLoss="2.32" maxSpeed="1.49"/>
        <ride waitingTime="483.00" vehicle="taxi6" depart="22834.00" arrival="23003.00" arrivalPos="20.00" duration="169.00" routeLength="2155.20" timeLoss="26.11"/>
        <walk depart="23003.00" departPos="20.00" arrival="23008.00" arrivalPos="14.07" duration="5.00" routeLength="5.93" timeLoss="1.02" maxSpeed="1.49"/>
    </personinfo>
    <personinfo id="w220" depart="21942.87" type="DEFAULT_PEDTYPE">
        <walk depart="21943.00" departPos="111.06" arrival="22327.00" arrivalPos="10.67" duration="384.00" routeLength="464.47" timeLoss="9.45" maxSpeed="1.24"/>
        <ride waitingTime="152.00" vehicle="taxi6" depart="22479.00" arrival="22762.00" arrivalPos="31.44" duration="283.00" routeLength="4790.84" timeLoss="33.41"/>
        <walk depart="22762.00" departPos="31.44" arrival="23032.00" arrivalPos="16.03" duration="270.00" routeLength="325.93" timeLoss="7.17" maxSpeed="1.24"/>
    </personinfo>
    <personinfo id="w726" depart="22229.06" type="DEFAULT_PEDTYPE">
        <walk depart="22230.00" departPos="1.82" arrival="22237.00" arrivalPos="5.29" duration="7.00" routeLength="27.02" timeLoss="-15.88" maxSpeed="1.18"/>
        <ride waitingTime="315.00" vehicle="taxi81" depart="22552.00" arrival="23031.00" arrivalPos="25.00" duration="479.00" routeLength="5407.93" timeLoss="64.63"/>
        <walk depart="23031.00" departPos="25.00" arrival="23037.00" arrivalPos="19.38" duration="6.00" routeLength="5.62" timeLoss="1.24" maxSpeed="1.18"/>
    </personinfo>
    <personinfo id="w650" depart="22089.60" type="DEFAULT_PEDTYPE">
        <walk depart="22090.00" departPos="15.74" arrival="22574.00" arrivalPos="7.77" duration="484.00" routeLength="701.77" timeLoss="-3.41" maxSpeed="1.44"/>
        <ride waitingTime="407.00" vehicle="taxi83" depart="22981.00" arrival="23102.00" arrivalPos="25.00" duration="121.00" routeLength="1222.58" timeLoss="24.96"/>
        <walk depart="23102.00" departPos="25.00" arrival="23112.00" arrivalPos="12.82" duration="10.00" routeLength="12.18" timeLoss="1.54" maxSpeed="1.44"/>
    </personinfo>
    <personinfo id="w8" depart="21981.92" type="DEFAULT_PEDTYPE">
        <walk depart="21982.00" departPos="64.14" arrival="22247.00" arrivalPos="7.26" duration="265.00" routeLength="360.88" timeLoss="-17.66" maxSpeed="1.28"/>
        <ride waitingTime="42.00" vehicle="taxi40" depart="22289.00" arrival="22957.00" arrivalPos="18.64" duration="668.00" routeLength="13186.69" timeLoss="37.28"/>
        <walk depart="22957.00" departPos="18.64" arrival="23155.00" arrivalPos="0.16" duration="198.00" routeLength="290.80" timeLoss="-29.77" maxSpeed="1.28"/>
    </personinfo>
    <personinfo id="w271" depart="22209.79" type="DEFAULT_PEDTYPE">
        <walk depart="22210.00" departPos="0.81" arrival="22463.00" arrivalPos="66.03" duration="253.00" routeLength="340.17" timeLoss="19.57" maxSpeed="1.46"/>
        <ride waitingTime="81.00" vehicle="taxi119" depart="22544.00" arrival="22929.00" arrivalPos="384.72" duration="385.00" routeLength="8178.56" timeLoss="27.74"/>
        <walk depart="22929.00" departPos="384.72" arrival="23277.00" arrivalPos="504.08" duration="348.00" routeLength="456.35" timeLoss="34.85" maxSpeed="1.46"/>
    </personinfo>
    <personinfo id="w169" depart="22473.90" type="DEFAULT_PEDTYPE">
        <walk depart="22474.00" departPos="1.84" arrival="22509.00" arrivalPos="6.62" duration="35.00" routeLength="39.83" timeLoss="4.12" maxSpeed="1.29"/>
        <ride waitingTime="137.00" vehicle="taxi60" depart="22646.00" arrival="22941.00" arrivalPos="5.00" duration="295.00" routeLength="5120.44" timeLoss="43.36"/>
        <walk depart="22941.00" departPos="5.00" arrival="23349.00" arrivalPos="15.09" duration="408.00" routeLength="498.51" timeLoss="21.45" maxSpeed="1.29"/>
    </personinfo>
    <personinfo id="w296" depart="22744.44" type="DEFAULT_PEDTYPE">
        <walk depart="22745.00" departPos="14.39" arrival="22894.00" arrivalPos="7.50" duration="149.00" routeLength="189.97" timeLoss="8.79" maxSpeed="1.35"/>
        <ride waitingTime="276.00" vehicle="taxi81" depart="23170.00" arrival="23359.00" arrivalPos="15.00" duration="189.00" routeLength="3428.19" timeLoss="18.90"/>
        <walk depart="23359.00" departPos="15.00" arrival="23382.00" arrivalPos="13.37" duration="23.00" routeLength="38.82" timeLoss="-5.65" maxSpeed="1.35"/>
    </personinfo>
    <personinfo id="w300" depart="21749.63" type="DEFAULT_PEDTYPE">
        <walk depart="21750.00" departPos="73.88" arrival="22391.00" arrivalPos="87.83" duration="641.00" routeLength="725.48" timeLoss="16.94" maxSpeed="1.16"/>
        <ride waitingTime="150.00" vehicle="taxi45" depart="22541.00" arrival="22956.00" arrivalPos="37.25" duration="415.00" routeLength="7192.61" timeLoss="45.03"/>
        <walk depart="22956.00" departPos="37.25" arrival="23431.00" arrivalPos="31.47" duration="475.00" routeLength="537.65" timeLoss="12.50" maxSpeed="1.16"/>
    </personinfo>
    <personinfo id="w772" depart="22753.78" type="DEFAULT_PEDTYPE">
        <walk depart="22754.00" departPos="25.88" arrival="22763.00" arrivalPos="15.00" duration="9.00" routeLength="10.88" timeLoss="1.69" maxSpeed="1.49"/>
        <ride waitingTime="328.00" vehicle="taxi6" depart="23091.00" arrival="23501.00" arrivalPos="15.00" duration="410.00" routeLength="6944.55" timeLoss="56.18"/>
        <walk depart="23501.00" departPos="15.00" arrival="23562.00" arrivalPos="94.97" duration="61.00" routeLength="79.97" timeLoss="7.30" maxSpeed="1.49"/>
    </personinfo>
    <personinfo id="w214" depart="21815.86" type="DEFAULT_PEDTYPE">
        <walk depart="21816.00" departPos="4.15" arrival="22309.00" arrivalPos="26.78" duration="493.00" routeLength="638.36" timeLoss="38.68" maxSpeed="1.41"/>
        <ride waitingTime="273.00" vehicle="taxi114" depart="22582.00" arrival="23238.00" arrivalPos="25.00" duration="656.00" routeLength="12947.80" timeLoss="51.92"/>
        <walk depart="23238.00" departPos="25.00" arrival="23582.00" arrivalPos="29.19" duration="344.00" routeLength="461.09" timeLoss="15.84" maxSpeed="1.41"/>
    </personinfo>
    <personinfo id="w243" depart="22608.03" type="DEFAULT_PEDTYPE">
        <walk depart="22609.00" departPos="83.06" arrival="22873.00" arrivalPos="7.04" duration="264.00" routeLength="325.97" timeLoss="-0.98" maxSpeed="1.23"/>
        <ride waitingTime="426.00" vehicle="taxi119" depart="23299.00" arrival="23583.00" arrivalPos="25.00" duration="284.00" routeLength="4521.94" timeLoss="44.81"/>
        <walk depart="23583.00" departPos="25.00" arrival="23596.00" arrivalPos="11.24" duration="13.00" routeLength="13.76" timeLoss="1.82" maxSpeed="1.23"/>
    </personinfo>
    <personinfo id="w172" depart="22341.96" type="DEFAULT_PEDTYPE">
        <walk depart="22342.00" departPos="5.21" arrival="22975.00" arrivalPos="15.53" duration="633.00" routeLength="890.38" timeLoss="41.78" maxSpeed="1.51"/>
        <ride waitingTime="196.00" vehicle="taxi24" depart="23171.00" arrival="23443.00" arrivalPos="15.00" duration="272.00" routeLength="4509.73" timeLoss="34.87"/>
        <walk depart="23443.00" departPos="15.00" arrival="23606.00" arrivalPos="6.60" duration="163.00" routeLength="248.83" timeLoss="-2.23" maxSpeed="1.51"/>
    </personinfo>
    <personinfo id="w394" depart="22217.73" type="DEFAULT_PEDTYPE">
        <walk depart="22218.00" departPos="107.89" arrival="22898.00" arrivalPos="20.48" duration="680.00" routeLength="843.78" timeLoss="54.31" maxSpeed="1.35"/>
        <ride waitingTime="455.00" vehicle="taxi45" depart="23353.00" arrival="23579.00" arrivalPos="22.40" duration="226.00" routeLength="3395.76" timeLoss="29.76"/>
        <walk depart="23579.00" departPos="22.40" arrival="23616.00" arrivalPos="21.14" duration="37.00" routeLength="61.03" timeLoss="-8.25" maxSpeed="1.35"/>
    </personinfo>
    <personinfo id="w241" depart="22898.74" type="DEFAULT_PEDTYPE">
        <walk depart="22899.00" departPos="30.33" arrival="22914.00" arrivalPos="48.13" duration="15.00" routeLength="17.80" timeLoss="2.02" maxSpeed="1.37"/>
        <ride waitingTime="335.00" vehicle="taxi27" depart="23249.00" arrival="23688.00" arrivalPos="25.00" duration="439.00" routeLength="6860.33" timeLoss="54.43"/>
        <walk depart="23688.00" departPos="25.00" arrival="23706.00" arrivalPos="3.67" duration="18.00" routeLength="21.33" timeLoss="2.45" maxSpeed="1.37"/>
    </personinfo>
    <personinfo id="w143" depart="22703.27" type="DEFAULT_PEDTYPE">
        <walk depart="22704.00" departPos="17.38" arrival="22804.00" arrivalPos="18.43" duration="100.00" routeLength="142.20" timeLoss="-1.78" maxSpeed="1.40"/>
        <ride waitingTime="244.00" vehicle="taxi60" depart="23048.00" arrival="23485.00" arrivalPos="25.48" duration="437.00" routeLength="7729.42" timeLoss="65.33"/>
        <walk depart="23485.00" departPos="25.48" arrival="23716.00" arrivalPos="1.16" duration="231.00" routeLength="307.94" timeLoss="10.59" maxSpeed="1.40"/>
    </personinfo>
    <personinfo id="w971" depart="23131.64" type="DEFAULT_PEDTYPE">
        <walk depart="23132.00" departPos="17.61" arrival="23135.00" arrivalPos="15.00" duration="3.00" routeLength="2.61" timeLoss="0.79" maxSpeed="1.18"/>
        <ride waitingTime="163.00" vehicle="taxi114" depart="23298.00" arrival="23825.00" arrivalPos="10.59" duration="527.00" routeLength="5207.80" timeLoss="111.35"/>
        <walk depart="23825.00" departPos="10.59" arrival="23838.00" arrivalPos="2.11" duration="13.00" routeLength="19.26" timeLoss="-3.35" maxSpeed="1.18"/>
    </personinfo>
    <personinfo id="w1018" depart="23006.58" type="DEFAULT_PEDTYPE">
        <walk depart="23007.00" departPos="2.68" arrival="23013.00" arrivalPos="10.00" duration="6.00" routeLength="7.32" timeLoss="0.67" maxSpeed="1.37"/>
        <ride waitingTime="176.00" vehicle="taxi83" depart="23189.00" arrival="23376.00" arrivalPos="45.55" duration="187.00" routeLength="2626.38" timeLoss="25.27"/>
        <walk depart="23376.00" departPos="45.55" arrival="23845.00" arrivalPos="59.86" duration="469.00" routeLength="579.58" timeLoss="46.72" maxSpeed="1.37"/>
    </personinfo>
    <personinfo id="w349" depart="23123.81" type="DEFAULT_PEDTYPE">
        <walk depart="23124.00" departPos="2.18" arrival="23292.00" arrivalPos="14.90" duration="168.00" routeLength="245.27" timeLoss="-4.62" maxSpeed="1.42"/>
        <ride waitingTime="184.00" vehicle="taxi114" depart="23476.00" arrival="23701.00" arrivalPos="73.53" duration="225.00" routeLength="2866.57" timeLoss="35.46"/>
        <walk depart="23701.00" departPos="73.53" arrival="23849.00" arrivalPos="5.04" duration="148.00" routeLength="196.81" timeLoss="9.49" maxSpeed="1.42"/>
    </personinfo>
    <personinfo id="w659" depart="22806.22" type="DEFAULT_PEDTYPE">
        <walk depart="22807.00" departPos="148.60" arrival="23266.00" arrivalPos="184.55" duration="459.00" routeLength="576.18" timeLoss="50.83" maxSpeed="1.41"/>
        <ride waitingTime="423.00" vehicle="taxi60" depart="23689.00" arrival="23867.00" arrivalPos="25.00" duration="178.00" routeLength="2655.19" timeLoss="27.28"/>
        <walk depart="23867.00" departPos="25.00" arrival="23869.00" arrivalPos="27.38" duration="2.00" routeLength="2.38" timeLoss="0.31" maxSpeed="1.41"/>
    </personinfo>
    <personinfo id="w325" depart="22779.20" type="DEFAULT_PEDTYPE">
        <walk depart="22780.00" departPos="38.47" arrival="23157.00" arrivalPos="184.55" duration="377.00" routeLength="520.26" timeLoss="42.07" maxSpeed="1.55"/>
        <ride waitingTime="336.00" vehicle="taxi81" depart="23493.00" arrival="23748.00" arrivalPos="51.36" duration="255.00" routeLength="2200.31" timeLoss="55.87"/>
        <walk depart="23748.00" departPos="51.36" arrival="23876.00" arrivalPos="1.48" duration="128.00" routeLength="210.13" timeLoss="-7.28" maxSpeed="1.55"/>
    </personinfo>
    <personinfo id="w553" depart="22938.16" type="DEFAULT_PEDTYPE">
        <walk depart="22939.00" departPos="14.76" arrival="23395.00" arrivalPos="184.55" duration="456.00" routeLength="521.71" timeLoss="39.74" maxSpeed="1.25"/>
        <ride waitingTime="150.00" vehicle="taxi81" depart="23545.00" arrival="23846.00" arrivalPos="32.59" duration="301.00" routeLength="1968.21" timeLoss="45.73"/>
        <walk depart="23846.00" departPos="32.59" arrival="23930.00" arrivalPos="5.56" duration="84.00" routeLength="97.51" timeLoss="6.20" maxSpeed="1.25"/>
    </personinfo>
    <personinfo id="w491" depart="22673.38" type="DEFAULT_PEDTYPE">
        <walk depart="22674.00" departPos="64.43" arrival="23228.00" arrivalPos="15.00" duration="554.00" routeLength="807.11" timeLoss="26.89" maxSpeed="1.53"/>
        <ride waitingTime="428.00" vehicle="taxi83" depart="23656.00" arrival="23960.00" arrivalPos="237.79" duration="304.00" routeLength="2811.68" timeLoss="71.96"/>
        <walk depart="23960.00" departPos="237.79" arrival="23962.00" arrivalPos="2.61" duration="2.00" routeLength="14.83" timeLoss="-7.69" maxSpeed="1.53"/>
    </personinfo>
    <personinfo id="w689" depart="23604.99" type="DEFAULT_PEDTYPE">
        <walk depart="23605.00" departPos="46.32" arrival="23694.00" arrivalPos="51.49" duration="89.00" routeLength="101.01" timeLoss="5.77" maxSpeed="1.21"/>
        <ride waitingTime="77.00" vehicle="taxi2" depart="23771.00" arrival="23960.00" arrivalPos="21.38" duration="189.00" routeLength="2009.65" timeLoss="47.05"/>
        <walk depart="23960.00" departPos="21.38" arrival="23966.00" arrivalPos="14.99" duration="6.00" routeLength="6.39" timeLoss="0.74" maxSpeed="1.21"/>
    </personinfo>
    <personinfo id="w12" depart="23615.92" type="DEFAULT_PEDTYPE">
        <walk depart="23616.00" departPos="3.58" arrival="23681.00" arrivalPos="11.14" duration="65.00" routeLength="90.95" timeLoss="1.22" maxSpeed="1.43"/>
        <ride waitingTime="246.00" vehicle="taxi66" depart="23927.00" arrival="23985.00" arrivalPos="15.00" duration="58.00" routeLength="506.33" timeLoss="18.17"/>
        <walk depart="23985.00" departPos="15.00" arrival="24004.00" arrivalPos="1.93" duration="19.00" routeLength="33.46" timeLoss="-4.46" maxSpeed="1.43"/>
    </personinfo>
    <personinfo id="w591" depart="22867.39" type="DEFAULT_PEDTYPE">
        <walk depart="22868.00" departPos="3.70" arrival="22900.00" arrivalPos="5.29" duration="32.00" routeLength="80.92" timeLoss="-17.09" maxSpeed="1.65"/>
        <ride waitingTime="426.00" vehicle="taxi119" depart="23326.00" arrival="23667.00" arrivalPos="25.00" duration="341.00" routeLength="4375.70" timeLoss="46.08"/>
        <walk depart="23667.00" departPos="25.00" arrival="24011.00" arrivalPos="1.37" duration="344.00" routeLength="544.59" timeLoss="13.60" maxSpeed="1.65"/>
    </personinfo>
    <personinfo id="w334" depart="23382.15" type="DEFAULT_PEDTYPE">
        <walk depart="23383.00" departPos="29.62" arrival="23419.00" arrivalPos="5.29" duration="36.00" routeLength="83.30" timeLoss="-24.19" maxSpeed="1.38"/>
        <ride waitingTime="407.00" vehicle="taxi15" depart="23826.00" arrival="23987.00" arrivalPos="58.59" duration="161.00" routeLength="2384.72" timeLoss="26.09"/>
        <walk depart="23987.00" departPos="58.59" arrival="24072.00" arrivalPos="34.54" duration="85.00" routeLength="143.50" timeLoss="-18.70" maxSpeed="1.38"/>
    </personinfo>
    <personinfo id="w611" depart="23307.55" type="DEFAULT_PEDTYPE">
        <walk depart="23308.00" departPos="62.62" arrival="23383.00" arrivalPos="9.76" duration="75.00" routeLength="116.22" timeLoss="1.72" maxSpeed="1.59"/>
        <ride waitingTime="567.00" vehicle="taxi81" depart="23950.00" arrival="24021.00" arrivalPos="15.00" duration="71.00" routeLength="570.19" timeLoss="15.10"/>
        <walk depart="24021.00" departPos="15.00" arrival="24117.00" arrivalPos="125.45" duration="96.00" routeLength="149.22" timeLoss="1.91" maxSpeed="1.59"/>
    </personinfo>
    <personinfo id="w187" depart="22546.82" type="DEFAULT_PEDTYPE">
        <walk depart="22547.00" departPos="41.96" arrival="23366.00" arrivalPos="75.31" duration="819.00" routeLength="894.51" timeLoss="79.80" maxSpeed="1.21"/>
        <ride waitingTime="166.00" vehicle="taxi15" depart="23532.00" arrival="23765.00" arrivalPos="10.59" duration="233.00" routeLength="4044.60" timeLoss="29.36"/>
        <walk depart="23765.00" departPos="10.59" arrival="24166.00" arrivalPos="120.53" duration="401.00" routeLength="483.23" timeLoss="1.67" maxSpeed="1.21"/>
    </personinfo>
    <personinfo id="w295" depart="23334.61" type="DEFAULT_PEDTYPE">
        <walk depart="23335.00" departPos="107.17" arrival="23351.00" arrivalPos="7.50" duration="16.00" routeLength="18.23" timeLoss="2.49" maxSpeed="1.35"/>
        <ride waitingTime="513.00" vehicle="taxi45" depart="23864.00" arrival="24043.00" arrivalPos="14.08" duration="179.00" routeLength="3477.55" timeLoss="18.35"/>
        <walk depart="24043.00" departPos="14.08" arrival="24191.00" arrivalPos="12.62" duration="148.00" routeLength="203.79" timeLoss="-3.01" maxSpeed="1.35"/>
    </personinfo>
    <personinfo id="w914" depart="23624.21" type="DEFAULT_PEDTYPE">
        <walk depart="23625.00" departPos="0.87" arrival="23637.00" arrivalPos="15.00" duration="12.00" routeLength="14.13" timeLoss="1.46" maxSpeed="1.34"/>
        <ride waitingTime="78.00" vehicle="taxi83" depart="23715.00" arrival="24130.00" arrivalPos="51.36" duration="415.00" routeLength="3400.65" timeLoss="59.28"/>
        <walk depart="24130.00" departPos="51.36" arrival="24198.00" arrivalPos="1.63" duration="68.00" routeLength="107.63" timeLoss="-12.25" maxSpeed="1.34"/>
    </personinfo>
    <personinfo id="w414" depart="23214.82" type="DEFAULT_PEDTYPE">
        <walk depart="23215.00" departPos="22.25" arrival="23268.00" arrivalPos="7.50" duration="53.00" routeLength="76.41" timeLoss="-1.42" maxSpeed="1.40"/>
        <ride waitingTime="567.00" vehicle="taxi6" depart="23835.00" arrival="24018.00" arrivalPos="46.63" duration="183.00" routeLength="1861.75" timeLoss="24.27"/>
        <walk depart="24018.00" departPos="46.63" arrival="24200.00" arrivalPos="10.88" duration="182.00" routeLength="293.02" timeLoss="-26.69" maxSpeed="1.40"/>
    </personinfo>
    <personinfo id="w895" depart="23007.38" type="DEFAULT_PEDTYPE">
        <walk depart="23008.00" departPos="0.07" arrival="23022.00" arrivalPos="15.00" duration="14.00" routeLength="14.93" timeLoss="1.72" maxSpeed="1.22"/>
        <ride waitingTime="310.00" vehicle="taxi114" depart="23332.00" arrival="23825.00" arrivalPos="10.59" duration="493.00" routeLength="5046.98" timeLoss="90.90"/>
        <walk depart="23825.00" departPos="10.59" arrival="24211.00" arrivalPos="30.18" duration="386.00" routeLength="473.17" timeLoss="-3.40" maxSpeed="1.22"/>
    </personinfo>
    <personinfo id="w898" depart="23680.92" type="DEFAULT_PEDTYPE">
        <walk depart="23681.00" departPos="21.06" arrival="23686.00" arrivalPos="15.00" duration="5.00" routeLength="6.06" timeLoss="0.69" maxSpeed="1.40"/>
        <ride waitingTime="226.00" vehicle="taxi2" depart="23912.00" arrival="24155.00" arrivalPos="53.58" duration="243.00" routeLength="1856.24" timeLoss="47.82"/>
        <walk depart="24155.00" departPos="53.58" arrival="24238.00" arrivalPos="25.53" duration="83.00" routeLength="50.48" timeLoss="47.07" maxSpeed="1.40"/>
    </personinfo>
    <personinfo id="w426" depart="23385.32" type="DEFAULT_PEDTYPE">
        <walk depart="23386.00" departPos="20.84" arrival="23509.00" arrivalPos="14.90" duration="123.00" routeLength="154.68" timeLoss="9.63" maxSpeed="1.36"/>
        <ride waitingTime="194.00" vehicle="taxi36" depart="23703.00" arrival="24164.00" arrivalPos="51.36" duration="461.00" routeLength="6521.77" timeLoss="63.48"/>
        <walk depart="24164.00" departPos="51.36" arrival="24251.00" arrivalPos="19.66" duration="87.00" routeLength="134.75" timeLoss="-11.77" maxSpeed="1.36"/>
    </personinfo>
    <personinfo id="w977" depart="23602.43" type="DEFAULT_PEDTYPE">
        <walk depart="23603.00" departPos="13.58" arrival="23607.00" arrivalPos="10.00" duration="4.00" routeLength="3.58" timeLoss="1.11" maxSpeed="1.24"/>
        <ride waitingTime="347.00" vehicle="taxi60" depart="23954.00" arrival="24067.00" arrivalPos="21.05" duration="113.00" routeLength="1250.15" timeLoss="22.28"/>
        <walk depart="24067.00" departPos="21.05" arrival="24299.00" arrivalPos="21.61" duration="232.00" routeLength="260.15" timeLoss="21.76" maxSpeed="1.24"/>
    </personinfo>
    <personinfo id="s375" depart="23645.88" type="DEFAULT_PEDTYPE">
        <walk depart="23646.00" departPos="3.78" arrival="23666.00" arrivalPos="51.49" duration="20.00" routeLength="24.45" timeLoss="3.58" maxSpeed="1.49"/>
        <ride waitingTime="322.00" vehicle="taxi15" depart="23988.00" arrival="24294.00" arrivalPos="14.90" duration="306.00" routeLength="2144.69" timeLoss="50.72"/>
        <walk depart="24294.00" departPos="14.90" arrival="24310.00" arrivalPos="1.44" duration="16.00" routeLength="27.41" timeLoss="-2.41" maxSpeed="1.49"/>
    </personinfo>
    <personinfo id="p375" depart="23645.88" type="DEFAULT_PEDTYPE">
        <walk depart="23646.00" departPos="4.08" arrival="23668.00" arrivalPos="51.49" duration="22.00" routeLength="24.74" timeLoss="5.00" maxSpeed="1.46"/>
        <ride waitingTime="382.00" vehicle="taxi15" depart="24050.00" arrival="24294.00" arrivalPos="14.90" duration="244.00" routeLength="2140.59" timeLoss="49.03"/>
        <walk depart="24294.00" departPos="14.90" arrival="24312.00" arrivalPos="6.30" duration="18.00" routeLength="32.27" timeLoss="-4.17" maxSpeed="1.46"/>
    </personinfo>
    <personinfo id="w915" depart="23636.60" type="DEFAULT_PEDTYPE">
        <walk depart="23637.00" departPos="15.28" arrival="23638.00" arrivalPos="15.00" duration="1.00" routeLength="0.28" timeLoss="0.76" maxSpeed="1.20"/>
        <ride waitingTime="102.00" vehicle="taxi83" depart="23740.00" arrival="24288.00" arrivalPos="53.58" duration="548.00" routeLength="4065.93" timeLoss="75.35"/>
        <walk depart="24288.00" departPos="53.58" arrival="24340.00" arrivalPos="74.73" duration="52.00" routeLength="57.36" timeLoss="4.20" maxSpeed="1.20"/>
    </personinfo>
    <personinfo id="s308" depart="23909.53" type="DEFAULT_PEDTYPE">
        <walk depart="23910.00" departPos="7.90" arrival="23983.00" arrivalPos="26.60" duration="73.00" routeLength="101.33" timeLoss="-14.73" maxSpeed="1.15"/>
        <ride waitingTime="194.00" vehicle="taxi81" depart="24177.00" arrival="24341.00" arrivalPos="10.00" duration="164.00" routeLength="1502.31" timeLoss="34.20"/>
        <walk depart="24341.00" departPos="10.00" arrival="24357.00" arrivalPos="26.45" duration="16.00" routeLength="16.45" timeLoss="1.76" maxSpeed="1.15"/>
    </personinfo>