<?xml version="1.0" encoding="UTF-8"?>

<!-- generated by Eclipse SUMO sumo Version 1.12.0
<configuration xmlns:xsi="http://www.w3.org/2001/XMLSchema-instance" xsi:noNamespaceSchemaLocation="http://sumo.dlr.de/xsd/sumoConfiguration.xsd">

    <input>
        <net-file value="D:\Dokumente\sumo\maloja\simple.net.xml"/>
        <route-files value="D:\Dokumente\sumo\maloja\09_daytrips\persontrips_maloja_daytrips_resolved_offseason_taxi.rou.xml,D:\Dokumente\sumo\maloja\11_hotel\persontrips_maloja_hotel_resolved_offseason_taxi.rou.xml,D:\Dokumente\sumo\maloja\12_non_hotel\persontrips_maloja_non_hotel_resolved_offseason_taxi.rou.xml,D:\Dokumente\sumo\maloja\13_private\persontrips_maloja_private_resolved_offseason_taxi.rou.xml"/>
        <additional-files value="D:\Dokumente\sumo\maloja\03_bus\virtualstop.add.xml,D:\Dokumente\sumo\maloja\03_bus\03_November\gtfs_pt_stops.add.xml,drt_fleet.xml,drt_parking.add.xml,drt_parking_rerouter.add.xml"/>
    </input>

    <output>
        <tripinfo-output value="tripinfos_drt.xml"/>
        <tripinfo-output.write-unfinished value="true"/>
        <stop-output value="stopinfos_drt.xml"/>
        <statistic-output value="stats_drt.xml"/>
    </output>

    <time>
        <begin value="20520"/>
        <end value="77400"/>
    </time>

    <routing>
        <routing-algorithm value="CH"/>
        <persontrip.transfer.taxi-walk value="ptStops"/>
        <persontrip.transfer.walk-taxi value="ptStops"/>
    </routing>

    <report>
        <verbose value="true"/>
        <log value="simulation.log.txt"/>
        <error-log value="sumo_error.log"/>
        <duration-log.statistics value="true"/>
    </report>

    <taxi_device>
        <device.taxi.dispatch-algorithm value="traci"/>
    </taxi_device>

    <traci_server>
        <remote-port value="57786"/>
    </traci_server>

</configuration>
-->

<tripinfos xmlns:xsi="http://www.w3.org/2001/XMLSchema-instance" xsi:noNamespaceSchemaLocation="http://sumo.dlr.de/xsd/tripinfo_file.xsd">
    <personinfo id="d92" depart="29122.82" type="DEFAULT_PEDTYPE">
        <walk depart="29123.00" departPos="10.91" arrival="29127.00" arrivalPos="15.00" duration="4.00" routeLength="4.09" timeLoss="0.96" maxSpeed="1.34"/>
        <ride waitingTime="42.00" vehicle="taxi90" depart="29169.00" arrival="29568.00" arrivalPos="13.24" duration="399.00" routeLength="6663.45" timeLoss="43.07"/>
        <walk depart="29568.00" departPos="13.24" arrival="29609.00" arrivalPos="0.67" duration="41.00" routeLength="47.62" timeLoss="5.58" maxSpeed="1.34"/>
    </personinfo>
    <personinfo id="d89" depart="29197.95" type="DEFAULT_PEDTYPE">
        <walk depart="29198.00" departPos="4.83" arrival="29206.00" arrivalPos="15.00" duration="8.00" routeLength="10.17" timeLoss="1.50" maxSpeed="1.56"/>
        <ride waitingTime="52.00" vehicle="taxi72" depart="29258.00" arrival="29681.00" arrivalPos="524.38" duration="423.00" routeLength="7115.34" timeLoss="46.17"/>
        <walk depart="29681.00" departPos="524.38" arrival="29706.00" arrivalPos="23.98" duration="25.00" routeLength="38.11" timeLoss="0.62" maxSpeed="1.56"/>
    </personinfo>
    <personinfo id="tp122" depart="28979.52" type="DEFAULT_PEDTYPE">
        <walk depart="28980.00" departPos="0.56" arrival="28995.00" arrivalPos="18.71" duration="15.00" routeLength="18.15" timeLoss="1.63" maxSpeed="1.36"/>
        <ride waitingTime="57.00" vehicle="taxi64" depart="29052.00" arrival="29448.00" arrivalPos="45.55" duration="396.00" routeLength="3978.00" timeLoss="40.86"/>
        <walk depart="29448.00" departPos="45.55" arrival="29886.00" arrivalPos="105.14" duration="438.00" routeLength="553.33" timeLoss="30.41" maxSpeed="1.36"/>
    </personinfo>
    <personinfo id="tn85" depart="28889.60" type="DEFAULT_PEDTYPE">
        <walk depart="28890.00" departPos="4.46" arrival="29266.00" arrivalPos="553.86" duration="376.00" routeLength="529.27" timeLoss="42.33" maxSpeed="1.59"/>
        <ride waitingTime="393.00" vehicle="taxi64" depart="29659.00" arrival="29889.00" arrivalPos="25.00" duration="230.00" routeLength="3011.61" timeLoss="33.05"/>
        <walk depart="29889.00" departPos="25.00" arrival="29890.00" arrivalPos="25.50" duration="1.00" routeLength="0.50" timeLoss="0.69" maxSpeed="1.59"/>
    </personinfo>
    <personinfo id="th83" depart="29197.95" type="DEFAULT_PEDTYPE">
        <walk depart="29198.00" departPos="40.87" arrival="29349.00" arrivalPos="23.94" duration="151.00" routeLength="223.57" timeLoss="0.94" maxSpeed="1.49"/>
        <ride waitingTime="70.00" vehicle="taxi11" depart="29419.00" arrival="29877.00" arrivalPos="15.00" duration="458.00" routeLength="8604.64" timeLoss="48.58"/>
        <walk depart="29877.00" departPos="15.00" arrival="29890.00" arrivalPos="1.99" duration="13.00" routeLength="20.20" timeLoss="-0.56" maxSpeed="1.49"/>
    </personinfo>
    <personinfo id="tp83" depart="29197.95" type="DEFAULT_PEDTYPE">
        <walk depart="29198.00" departPos="99.19" arrival="29303.00" arrivalPos="23.94" duration="105.00" routeLength="165.26" timeLoss="-6.74" maxSpeed="1.48"/>
        <ride waitingTime="74.00" vehicle="taxi11" depart="29377.00" arrival="29877.00" arrivalPos="15.00" duration="500.00" routeLength="8976.22" timeLoss="61.91"/>
        <walk depart="29877.00" departPos="15.00" arrival="29891.00" arrivalPos="1.99" duration="14.00" routeLength="20.20" timeLoss="0.34" maxSpeed="1.48"/>
    </personinfo>
    <personinfo id="d128" depart="28979.52" type="DEFAULT_PEDTYPE">
        <walk depart="28980.00" departPos="19.31" arrival="28987.00" arrivalPos="10.00" duration="7.00" routeLength="9.31" timeLoss="1.14" maxSpeed="1.59"/>
        <ride waitingTime="398.00" vehicle="taxi82" depart="29385.00" arrival="29569.00" arrivalPos="45.55" duration="184.00" routeLength="2626.38" timeLoss="26.65"/>
        <walk depart="29569.00" departPos="45.55" arrival="29942.00" arrivalPos="105.14" duration="373.00" routeLength="553.33" timeLoss="24.71" maxSpeed="1.59"/>
    </personinfo>
    <personinfo id="d56" depart="28921.78" type="DEFAULT_PEDTYPE">
        <walk depart="28922.00" departPos="0.38" arrival="28936.00" arrivalPos="15.00" duration="14.00" routeLength="14.62" timeLoss="1.77" maxSpeed="1.20"/>
        <ride waitingTime="54.00" vehicle="taxi81" depart="28990.00" arrival="29582.00" arrivalPos="15.00" duration="592.00" routeLength="10570.68" timeLoss="66.62"/>
        <walk depart="29582.00" departPos="15.00" arrival="29947.00" arrivalPos="62.06" duration="365.00" routeLength="452.97" timeLoss="-13.87" maxSpeed="1.20"/>
    </personinfo>
    <personinfo id="th122" depart="28979.52" type="DEFAULT_PEDTYPE">
        <walk depart="28980.00" departPos="14.78" arrival="28984.00" arrivalPos="18.71" duration="4.00" routeLength="3.93" timeLoss="1.02" maxSpeed="1.32"/>
        <ride waitingTime="32.00" vehicle="taxi82" depart="29016.00" arrival="29569.00" arrivalPos="45.55" duration="553.00" routeLength="5699.35" timeLoss="74.90"/>
        <walk depart="29569.00" departPos="45.55" arrival="30019.00" arrivalPos="105.14" duration="450.00" routeLength="553.33" timeLoss="30.07" maxSpeed="1.32"/>
    </personinfo>
    <personinfo id="tn81" depart="29197.95" type="DEFAULT_PEDTYPE">
        <walk depart="29198.00" departPos="6.21" arrival="29379.00" arrivalPos="23.94" duration="181.00" routeLength="258.23" timeLoss="1.27" maxSpeed="1.44"/>
        <ride waitingTime="527.00" vehicle="taxi90" depart="29906.00" arrival="30039.00" arrivalPos="25.00" duration="133.00" routeLength="1699.73" timeLoss="19.56"/>
        <walk depart="30039.00" departPos="25.00" arrival="30150.00" arrivalPos="0.24" duration="111.00" routeLength="143.26" timeLoss="11.29" maxSpeed="1.44"/>
    </personinfo>
    <personinfo id="d145" depart="30205.95" type="DEFAULT_PEDTYPE">
        <walk depart="30206.00" departPos="26.61" arrival="30215.00" arrivalPos="15.00" duration="9.00" routeLength="11.61" timeLoss="0.92" maxSpeed="1.44"/>
        <ride waitingTime="35.00" vehicle="taxi63" depart="30250.00" arrival="30387.00" arrivalPos="53.58" duration="137.00" routeLength="1640.39" timeLoss="22.17"/>
        <walk depart="30387.00" departPos="53.58" arrival="30472.00" arrivalPos="18.64" duration="85.00" routeLength="43.59" timeLoss="54.68" maxSpeed="1.44"/>
    </personinfo>
    <personinfo id="d136" depart="29903.27" type="DEFAULT_PEDTYPE">
        <walk depart="29904.00" departPos="25.65" arrival="29914.00" arrivalPos="15.00" duration="10.00" routeLength="10.65" timeLoss="1.47" maxSpeed="1.25"/>
        <ride waitingTime="188.00" vehicle="taxi90" depart="30102.00" arrival="30375.00" arrivalPos="25.48" duration="273.00" routeLength="3577.61" timeLoss="43.38"/>
        <walk depart="30375.00" departPos="25.48" arrival="30634.00" arrivalPos="1.56" duration="259.00" routeLength="307.54" timeLoss="12.62" maxSpeed="1.25"/>
    </personinfo>
    <personinfo id="th129" depart="29903.27" type="DEFAULT_PEDTYPE">
        <walk depart="29904.00" departPos="0.29" arrival="30295.00" arrivalPos="184.55" duration="391.00" routeLength="436.73" timeLoss="40.40" maxSpeed="1.25"/>
        <ride waitingTime="322.00" vehicle="taxi63" depart="30617.00" arrival="30802.00" arrivalPos="25.00" duration="185.00" routeLength="2638.36" timeLoss="28.31"/>
        <walk depart="30802.00" departPos="25.00" arrival="30824.00" arrivalPos="1.24" duration="22.00" routeLength="23.76" timeLoss="2.93" maxSpeed="1.25"/>
    </personinfo>
    <personinfo id="tp129" depart="29903.27" type="DEFAULT_PEDTYPE">
        <walk depart="29904.00" departPos="17.93" arrival="30365.00" arrivalPos="184.55" duration="461.00" routeLength="454.37" timeLoss="47.88" maxSpeed="1.10"/>
        <ride waitingTime="252.00" vehicle="taxi63" depart="30617.00" arrival="30802.00" arrivalPos="25.00" duration="185.00" routeLength="2638.36" timeLoss="28.31"/>
        <walk depart="30802.00" departPos="25.00" arrival="30827.00" arrivalPos="1.24" duration="25.00" routeLength="23.76" timeLoss="3.40" maxSpeed="1.10"/>
    </personinfo>
    <personinfo id="th138" depart="30205.95" type="DEFAULT_PEDTYPE">
        <walk depart="30206.00" departPos="0.32" arrival="30212.00" arrivalPos="5.29" duration="6.00" routeLength="25.53" timeLoss="-16.56" maxSpeed="1.13"/>
        <ride waitingTime="463.00" vehicle="taxi80" depart="30675.00" arrival="30937.00" arrivalPos="20.00" duration="262.00" routeLength="4209.92" timeLoss="36.25"/>
        <walk depart="30937.00" departPos="20.00" arrival="30938.00" arrivalPos="20.38" duration="1.00" routeLength="0.38" timeLoss="0.66" maxSpeed="1.13"/>
    </personinfo>
    <personinfo id="tp138" depart="30205.95" type="DEFAULT_PEDTYPE">
        <walk depart="30206.00" departPos="1.06" arrival="30213.00" arrivalPos="5.29" duration="7.00" routeLength="26.27" timeLoss="-13.27" maxSpeed="1.30"/>
        <ride waitingTime="462.00" vehicle="taxi80" depart="30675.00" arrival="30937.00" arrivalPos="20.00" duration="262.00" routeLength="4209.92" timeLoss="36.25"/>
        <walk depart="30937.00" departPos="20.00" arrival="30938.00" arrivalPos="20.38" duration="1.00" routeLength="0.38" timeLoss="0.71" maxSpeed="1.30"/>
    </personinfo>
    <personinfo id="d66" depart="30056.12" type="DEFAULT_PEDTYPE">
        <walk depart="30057.00" departPos="26.56" arrival="30068.00" arrivalPos="15.00" duration="11.00" routeLength="11.56" timeLoss="0.91" maxSpeed="1.14"/>
        <ride waitingTime="62.00" vehicle="taxi90" depart="30130.00" arrival="30911.00" arrivalPos="34.99" duration="781.00" routeLength="11755.52" timeLoss="89.62"/>
        <walk depart="30911.00" departPos="34.99" arrival="30959.00" arrivalPos="14.16" duration="48.00" routeLength="52.37" timeLoss="2.26" maxSpeed="1.14"/>
    </personinfo>
    <personinfo id="d115" depart="30649.67" type="DEFAULT_PEDTYPE">
        <walk depart="30650.00" departPos="17.13" arrival="30652.00" arrivalPos="15.00" duration="2.00" routeLength="2.13" timeLoss="0.57" maxSpeed="1.49"/>
        <ride waitingTime="314.00" vehicle="taxi80" depart="30966.00" arrival="31086.00" arrivalPos="17.26" duration="120.00" routeLength="1533.40" timeLoss="20.20"/>
        <walk depart="31086.00" departPos="17.26" arrival="31135.00" arrivalPos="27.61" duration="49.00" routeLength="78.11" timeLoss="-3.29" maxSpeed="1.49"/>
    </personinfo>
    <personinfo id="tp26" depart="29784.39" type="DEFAULT_PEDTYPE">
        <walk depart="29785.00" departPos="77.67" arrival="30081.00" arrivalPos="2.55" duration="296.00" routeLength="361.92" timeLoss="24.77" maxSpeed="1.33"/>
        <ride waitingTime="46.00" vehicle="taxi89" depart="30127.00" arrival="30404.00" arrivalPos="18.17" duration="277.00" routeLength="4471.12" timeLoss="36.82"/>
        <walk depart="30404.00" departPos="18.17" arrival="31144.00" arrivalPos="36.60" duration="740.00" routeLength="938.96" timeLoss="36.31" maxSpeed="1.33"/>
    </personinfo>
    <personinfo id="tn26" depart="29784.39" type="DEFAULT_PEDTYPE">
        <walk depart="29785.00" departPos="84.16" arrival="30100.00" arrivalPos="2.55" duration="315.00" routeLength="368.41" timeLoss="27.64" maxSpeed="1.28"/>
        <ride waitingTime="60.00" vehicle="taxi80" depart="30160.00" arrival="30437.00" arrivalPos="18.17" duration="277.00" routeLength="4471.16" timeLoss="38.71"/>
        <walk depart="30437.00" departPos="18.17" arrival="31206.00" arrivalPos="36.60" duration="769.00" routeLength="938.96" timeLoss="36.61" maxSpeed="1.28"/>
    </personinfo>
    <personinfo id="tp32" depart="28958.69" type="DEFAULT_PEDTYPE">
        <walk depart="28959.00" departPos="36.78" arrival="28975.00" arrivalPos="15.53" duration="16.00" routeLength="21.25" timeLoss="2.06" maxSpeed="1.52"/>
        <ride waitingTime="946.00" vehicle="taxi81" depart="29921.00" arrival="31187.00" arrivalPos="6.18" duration="1266.00" routeLength="24305.75" timeLoss="75.57"/>
        <walk depart="31187.00" departPos="6.18" arrival="31207.00" arrivalPos="24.95" duration="20.00" routeLength="41.80" timeLoss="-7.43" maxSpeed="1.52"/>
    </personinfo>
    <personinfo id="th32" depart="28958.69" type="DEFAULT_PEDTYPE">
        <walk depart="28959.00" departPos="3.09" arrival="28971.00" arrivalPos="15.53" duration="12.00" routeLength="12.44" timeLoss="2.12" maxSpeed="1.26"/>
        <ride waitingTime="946.00" vehicle="taxi81" depart="29917.00" arrival="31187.00" arrivalPos="6.18" duration="1270.00" routeLength="24309.10" timeLoss="78.17"/>
        <walk depart="31187.00" departPos="6.18" arrival="31208.00" arrivalPos="24.95" duration="21.00" routeLength="41.80" timeLoss="-12.20" maxSpeed="1.26"/>
    </personinfo>
    <personinfo id="tn32" depart="28958.69" type="DEFAULT_PEDTYPE">
        <walk depart="28959.00" departPos="62.68" arrival="28994.00" arrivalPos="15.53" duration="35.00" routeLength="47.15" timeLoss="3.45" maxSpeed="1.49"/>
        <ride waitingTime="927.00" vehicle="taxi81" depart="29921.00" arrival="31187.00" arrivalPos="6.18" duration="1266.00" routeLength="24305.75" timeLoss="75.57"/>
        <walk depart="31187.00" departPos="6.18" arrival="31213.00" arrivalPos="19.95" duration="26.00" routeLength="46.80" timeLoss="-5.32" maxSpeed="1.49"/>
    </personinfo>
    <personinfo id="tn48" depart="30772.95" type="DEFAULT_PEDTYPE">
        <walk depart="30773.00" departPos="13.51" arrival="30820.00" arrivalPos="10.67" duration="47.00" routeLength="68.59" timeLoss="6.36" maxSpeed="1.69"/>
        <ride waitingTime="270.00" vehicle="taxi89" depart="31090.00" arrival="31493.00" arrivalPos="20.00" duration="403.00" routeLength="6731.02" timeLoss="45.28"/>
        <walk depart="31493.00" departPos="20.00" arrival="31506.00" arrivalPos="1.20" duration="13.00" routeLength="18.80" timeLoss="1.86" maxSpeed="1.69"/>
    </personinfo>
    <personinfo id="tn68" depart="30891.43" type="DEFAULT_PEDTYPE">
        <walk depart="30892.00" departPos="0.11" arrival="30900.00" arrivalPos="6.12" duration="8.00" routeLength="8.91" timeLoss="0.48" maxSpeed="1.19"/>
        <ride waitingTime="500.00" vehicle="taxi90" depart="31400.00" arrival="31559.00" arrivalPos="109.72" duration="159.00" routeLength="2595.02" timeLoss="34.76"/>
        <walk depart="31559.00" departPos="109.72" arrival="31613.00" arrivalPos="0.15" duration="54.00" routeLength="56.08" timeLoss="6.68" maxSpeed="1.19"/>
    </personinfo>
    <personinfo id="d57" depart="30960.73" type="DEFAULT_PEDTYPE">
        <walk depart="30961.00" departPos="27.66" arrival="30971.00" arrivalPos="15.00" duration="10.00" routeLength="12.66" timeLoss="2.04" maxSpeed="1.59"/>
        <ride waitingTime="58.00" vehicle="taxi54" depart="31029.00" arrival="31618.00" arrivalPos="15.00" duration="589.00" routeLength="10571.48" timeLoss="62.90"/>
        <walk depart="31618.00" departPos="15.00" arrival="31623.00" arrivalPos="21.47" duration="5.00" routeLength="6.47" timeLoss="0.94" maxSpeed="1.59"/>
    </personinfo>
    <personinfo id="th109" depart="30649.67" type="DEFAULT_PEDTYPE">
        <walk depart="30650.00" departPos="1.84" arrival="30918.00" arrivalPos="5.29" duration="268.00" routeLength="344.83" timeLoss="-2.89" maxSpeed="1.27"/>
        <ride waitingTime="411.00" vehicle="taxi80" depart="31329.00" arrival="31578.00" arrivalPos="15.00" duration="249.00" routeLength="3811.60" timeLoss="40.31"/>
        <walk depart="31578.00" departPos="15.00" arrival="31631.00" arrivalPos="14.92" duration="53.00" routeLength="63.55" timeLoss="3.07" maxSpeed="1.27"/>
    </personinfo>
    <personinfo id="th156" depart="31417.42" type="DEFAULT_PEDTYPE">
        <walk depart="31418.00" departPos="29.91" arrival="31446.00" arrivalPos="7.50" duration="28.00" routeLength="48.29" timeLoss="-3.74" maxSpeed="1.52"/>
        <ride waitingTime="130.00" vehicle="taxi2" depart="31576.00" arrival="31730.00" arrivalPos="25.00" duration="154.00" routeLength="1492.64" timeLoss="25.15"/>
        <walk depart="31730.00" departPos="25.00" arrival="31739.00" arrivalPos="13.22" duration="9.00" routeLength="11.78" timeLoss="1.26" maxSpeed="1.52"/>
    </personinfo>
    <personinfo id="tp156" depart="31417.42" type="DEFAULT_PEDTYPE">
        <walk depart="31418.00" departPos="9.19" arrival="31432.00" arrivalPos="7.50" duration="14.00" routeLength="27.57" timeLoss="-5.33" maxSpeed="1.43"/>
        <ride waitingTime="144.00" vehicle="taxi2" depart="31576.00" arrival="31730.00" arrivalPos="25.00" duration="154.00" routeLength="1492.64" timeLoss="25.15"/>
        <walk depart="31730.00" departPos="25.00" arrival="31740.00" arrivalPos="13.22" duration="10.00" routeLength="11.78" timeLoss="1.74" maxSpeed="1.43"/>
    </personinfo>
    <personinfo id="tp109" depart="30649.67" type="DEFAULT_PEDTYPE">
        <walk depart="30650.00" departPos="5.87" arrival="30906.00" arrivalPos="5.29" duration="256.00" routeLength="340.80" timeLoss="-4.90" maxSpeed="1.31"/>
        <ride waitingTime="505.00" vehicle="taxi90" depart="31411.00" arrival="31711.00" arrivalPos="15.00" duration="300.00" routeLength="3810.80" timeLoss="48.63"/>
        <walk depart="31711.00" departPos="15.00" arrival="31764.00" arrivalPos="14.92" duration="53.00" routeLength="63.55" timeLoss="4.35" maxSpeed="1.31"/>
    </personinfo>
    <personinfo id="th26" depart="29784.39" type="DEFAULT_PEDTYPE">
        <walk depart="29785.00" departPos="121.00" arrival="30174.00" arrivalPos="2.55" duration="389.00" routeLength="405.24" timeLoss="29.35" maxSpeed="1.13"/>
        <ride waitingTime="578.00" vehicle="taxi89" depart="30752.00" arrival="31031.00" arrivalPos="18.17" duration="279.00" routeLength="4471.15" timeLoss="39.51"/>
        <walk depart="31031.00" departPos="18.17" arrival="31904.00" arrivalPos="36.60" duration="873.00" routeLength="938.96" timeLoss="39.68" maxSpeed="1.13"/>
    </personinfo>
    <personinfo id="tp153" depart="30962.87" type="DEFAULT_PEDTYPE">
        <walk depart="30963.00" departPos="40.06" arrival="31571.00" arrivalPos="184.55" duration="608.00" routeLength="681.80" timeLoss="42.28" maxSpeed="1.21"/>
        <ride waitingTime="434.00" vehicle="taxi2" depart="32005.00" arrival="32187.00" arrivalPos="25.00" duration="182.00" routeLength="2642.55" timeLoss="27.18"/>
        <walk depart="32187.00" departPos="25.00" arrival="32210.00" arrivalPos="0.17" duration="23.00" routeLength="24.83" timeLoss="2.40" maxSpeed="1.21"/>
    </personinfo>
    <personinfo id="d141" depart="31854.41" type="DEFAULT_PEDTYPE">
        <walk depart="31855.00" departPos="7.53" arrival="31857.00" arrivalPos="10.00" duration="2.00" routeLength="2.47" timeLoss="0.31" maxSpeed="1.46"/>
        <ride waitingTime="218.00" vehicle="taxi80" depart="32075.00" arrival="32224.00" arrivalPos="33.59" duration="149.00" routeLength="1872.25" timeLoss="24.23"/>
        <walk depart="32224.00" departPos="33.59" arrival="32280.00" arrivalPos="36.77" duration="56.00" routeLength="76.07" timeLoss="3.92" maxSpeed="1.46"/>
    </personinfo>
    <personinfo id="th153" depart="30962.87" type="DEFAULT_PEDTYPE">
        <walk depart="30963.00" departPos="108.10" arrival="31577.00" arrivalPos="184.55" duration="614.00" routeLength="749.85" timeLoss="45.97" maxSpeed="1.32"/>
        <ride waitingTime="515.00" vehicle="taxi54" depart="32092.00" arrival="32274.00" arrivalPos="25.00" duration="182.00" routeLength="2643.35" timeLoss="25.71"/>
        <walk depart="32274.00" departPos="25.00" arrival="32296.00" arrivalPos="0.17" duration="22.00" routeLength="24.83" timeLoss="3.19" maxSpeed="1.32"/>
    </personinfo>
    <personinfo id="tp89" depart="31346.34" type="DEFAULT_PEDTYPE">
        <walk depart="31347.00" departPos="20.65" arrival="31457.00" arrivalPos="9.76" duration="110.00" routeLength="158.19" timeLoss="7.86" maxSpeed="1.55"/>
        <ride waitingTime="235.00" vehicle="taxi18" depart="31692.00" arrival="32272.00" arrivalPos="34.99" duration="580.00" routeLength="9725.62" timeLoss="78.77"/>
        <walk depart="32272.00" departPos="34.99" arrival="32315.00" arrivalPos="12.82" duration="43.00" routeLength="51.03" timeLoss="10.05" maxSpeed="1.55"/>
    </personinfo>
    <personinfo id="th89" depart="31346.34" type="DEFAULT_PEDTYPE">
        <walk depart="31347.00" departPos="19.82" arrival="31480.00" arrivalPos="9.76" duration="133.00" routeLength="159.02" timeLoss="2.81" maxSpeed="1.22"/>
        <ride waitingTime="240.00" vehicle="taxi18" depart="31720.00" arrival="32272.00" arrivalPos="34.99" duration="552.00" routeLength="9566.43" timeLoss="64.73"/>
        <walk depart="32272.00" departPos="34.99" arrival="32316.00" arrivalPos="12.82" duration="44.00" routeLength="51.03" timeLoss="2.22" maxSpeed="1.22"/>
    </personinfo>
    <personinfo id="d135" depart="32308.99" type="DEFAULT_PEDTYPE">
        <walk depart="32309.00" departPos="5.32" arrival="32318.00" arrivalPos="15.00" duration="9.00" routeLength="9.68" timeLoss="1.10" maxSpeed="1.22"/>
        <ride waitingTime="34.00" vehicle="taxi36" depart="32352.00" arrival="32476.00" arrivalPos="95.33" duration="124.00" routeLength="1231.30" timeLoss="24.38"/>
        <walk depart="32476.00" departPos="95.33" arrival="32656.00" arrivalPos="46.41" duration="180.00" routeLength="252.67" timeLoss="-26.32" maxSpeed="1.22"/>
    </personinfo>
    <personinfo id="th63" depart="30915.84" type="DEFAULT_PEDTYPE">
        <walk depart="30916.00" departPos="0.30" arrival="31354.00" arrivalPos="87.83" duration="438.00" routeLength="507.07" timeLoss="31.03" maxSpeed="1.25"/>
        <ride waitingTime="375.00" vehicle="taxi89" depart="31729.00" arrival="32571.00" arrivalPos="15.00" duration="842.00" routeLength="16291.52" timeLoss="70.81"/>
        <walk depart="32571.00" departPos="15.00" arrival="32676.00" arrivalPos="7.10" duration="105.00" routeLength="119.44" timeLoss="9.14" maxSpeed="1.25"/>
    </personinfo>
    <personinfo id="tp63" depart="30915.84" type="DEFAULT_PEDTYPE">
        <walk depart="30916.00" departPos="34.67" arrival="31375.00" arrivalPos="87.83" duration="459.00" routeLength="541.45" timeLoss="81.32" maxSpeed="1.43"/>
        <ride waitingTime="354.00" vehicle="taxi89" depart="31729.00" arrival="32571.00" arrivalPos="15.00" duration="842.00" routeLength="16291.52" timeLoss="70.81"/>
        <walk depart="32571.00" departPos="15.00" arrival="32677.00" arrivalPos="7.10" duration="106.00" routeLength="119.44" timeLoss="22.69" maxSpeed="1.43"/>
    </personinfo>
    <personinfo id="d35" depart="31079.74" type="DEFAULT_PEDTYPE">
        <walk depart="31080.00" departPos="12.42" arrival="31083.00" arrivalPos="15.00" duration="3.00" routeLength="2.58" timeLoss="1.04" maxSpeed="1.32"/>
        <ride waitingTime="527.00" vehicle="taxi89" depart="31610.00" arrival="32571.00" arrivalPos="15.00" duration="961.00" routeLength="17523.60" timeLoss="91.84"/>
        <walk depart="32571.00" departPos="15.00" arrival="32718.00" arrivalPos="1.00" duration="147.00" routeLength="212.89" timeLoss="-14.40" maxSpeed="1.32"/>
    </personinfo>
    <personinfo id="th146" depart="32072.04" type="DEFAULT_PEDTYPE">
        <walk depart="32073.00" departPos="234.21" arrival="32272.00" arrivalPos="7.50" duration="199.00" routeLength="226.71" timeLoss="19.43" maxSpeed="1.26"/>
        <ride waitingTime="323.00" vehicle="taxi54" depart="32595.00" arrival="32804.00" arrivalPos="25.00" duration="209.00" routeLength="2295.31" timeLoss="27.81"/>
        <walk depart="32804.00" departPos="25.00" arrival="32815.00" arrivalPos="12.94" duration="11.00" routeLength="12.06" timeLoss="1.45" maxSpeed="1.26"/>
    </personinfo>
    <personinfo id="tp146" depart="32072.04" type="DEFAULT_PEDTYPE">
        <walk depart="32073.00" departPos="55.27" arrival="32117.00" arrivalPos="7.50" duration="44.00" routeLength="47.77" timeLoss="4.99" maxSpeed="1.22"/>
        <ride waitingTime="402.00" vehicle="taxi54" depart="32519.00" arrival="32804.00" arrivalPos="25.00" duration="285.00" routeLength="2780.83" timeLoss="43.29"/>
        <walk depart="32804.00" departPos="25.00" arrival="32816.00" arrivalPos="12.94" duration="12.00" routeLength="12.06" timeLoss="2.15" maxSpeed="1.22"/>
    </personinfo>
    <personinfo id="th136" depart="32421.41" type="DEFAULT_PEDTYPE">
        <walk depart="32422.00" departPos="3.62" arrival="32608.00" arrivalPos="37.39" duration="186.00" routeLength="262.61" timeLoss="14.64" maxSpeed="1.53"/>
        <ride waitingTime="31.00" vehicle="taxi92" depart="32639.00" arrival="32826.00" arrivalPos="25.00" duration="187.00" routeLength="2129.19" timeLoss="27.46"/>
        <walk depart="32826.00" departPos="25.00" arrival="32838.00" arrivalPos="9.21" duration="12.00" routeLength="15.79" timeLoss="1.70" maxSpeed="1.53"/>
    </personinfo>
    <personinfo id="d144" depart="32585.92" type="DEFAULT_PEDTYPE">
        <walk depart="32586.00" departPos="14.57" arrival="32587.00" arrivalPos="15.00" duration="1.00" routeLength="0.43" timeLoss="0.66" maxSpeed="1.26"/>
        <ride waitingTime="61.00" vehicle="taxi63" depart="32648.00" arrival="32788.00" arrivalPos="53.58" duration="140.00" routeLength="1640.39" timeLoss="25.20"/>
        <walk depart="32788.00" departPos="53.58" arrival="32840.00" arrivalPos="70.72" duration="52.00" routeLength="61.37" timeLoss="3.30" maxSpeed="1.26"/>
    </personinfo>
    <personinfo id="d143" depart="32421.41" type="DEFAULT_PEDTYPE">
        <walk depart="32422.00" departPos="18.98" arrival="32425.00" arrivalPos="15.00" duration="3.00" routeLength="3.98" timeLoss="0.62" maxSpeed="1.67"/>
        <ride waitingTime="46.00" vehicle="taxi27" depart="32471.00" arrival="32568.00" arrivalPos="46.63" duration="97.00" routeLength="791.33" timeLoss="21.03"/>
        <walk depart="32568.00" departPos="46.63" arrival="32851.00" arrivalPos="10.81" duration="283.00" routeLength="448.05" timeLoss="15.35" maxSpeed="1.67"/>
    </personinfo>
    <personinfo id="d91" depart="32165.36" type="DEFAULT_PEDTYPE">
        <walk depart="32166.00" departPos="10.84" arrival="32169.00" arrivalPos="15.00" duration="3.00" routeLength="4.16" timeLoss="0.23" maxSpeed="1.50"/>
        <ride waitingTime="86.00" vehicle="taxi2" depart="32255.00" arrival="32774.00" arrivalPos="23.03" duration="519.00" routeLength="6488.94" timeLoss="76.42"/>
        <walk depart="32774.00" departPos="23.03" arrival="32875.00" arrivalPos="33.80" duration="101.00" routeLength="138.69" timeLoss="8.53" maxSpeed="1.50"/>
    </personinfo>
    <personinfo id="d93" depart="32235.74" type="DEFAULT_PEDTYPE">
        <walk depart="32236.00" departPos="4.04" arrival="32246.00" arrivalPos="15.00" duration="10.00" routeLength="10.96" timeLoss="1.85" maxSpeed="1.34"/>
        <ride waitingTime="41.00" vehicle="taxi45" depart="32287.00" arrival="32823.00" arrivalPos="33.91" duration="536.00" routeLength="8205.85" timeLoss="63.30"/>
        <walk depart="32823.00" departPos="33.91" arrival="32891.00" arrivalPos="3.03" duration="68.00" routeLength="20.29" timeLoss="52.92" maxSpeed="1.34"/>
    </personinfo>
    <personinfo id="d153" depart="32072.04" type="DEFAULT_PEDTYPE">
        <walk depart="32073.00" departPos="17.01" arrival="32075.00" arrivalPos="15.00" duration="2.00" routeLength="2.01" timeLoss="0.19" maxSpeed="1.11"/>
        <ride waitingTime="153.00" vehicle="taxi2" depart="32228.00" arrival="32514.00" arrivalPos="73.53" duration="286.00" routeLength="3362.44" timeLoss="65.42"/>
        <walk depart="32514.00" departPos="73.53" arrival="32957.00" arrivalPos="62.03" duration="443.00" routeLength="460.44" timeLoss="28.74" maxSpeed="1.11"/>
    </personinfo>
    <personinfo id="d42" depart="32180.65" type="DEFAULT_PEDTYPE">
        <walk depart="32181.00" departPos="13.91" arrival="32182.00" arrivalPos="15.00" duration="1.00" routeLength="1.09" timeLoss="0.31" maxSpeed="1.56"/>
        <ride waitingTime="103.00" vehicle="taxi2" depart="32285.00" arrival="33094.00" arrivalPos="25.93" duration="809.00" routeLength="10910.31" timeLoss="101.63"/>
        <walk depart="33094.00" departPos="25.93" arrival="33107.00" arrivalPos="7.56" duration="13.00" routeLength="18.37" timeLoss="1.24" maxSpeed="1.56"/>