<?xml version="1.0" encoding="UTF-8"?>

<!-- generated by Eclipse SUMO sumo Version 1.12.0
<configuration xmlns:xsi="http://www.w3.org/2001/XMLSchema-instance" xsi:noNamespaceSchemaLocation="http://sumo.dlr.de/xsd/sumoConfiguration.xsd">

    <input>
        <net-file value="D:\Dokumente\sumo\maloja\simple.net.xml"/>
        <route-files value="D:\Dokumente\sumo\maloja\09_daytrips\persontrips_maloja_daytrips_resolved_offseason_taxi_w15.rou.xml,D:\Dokumente\sumo\maloja\11_hotel\persontrips_maloja_hotel_resolved_offseason_taxi_w15.rou.xml,D:\Dokumente\sumo\maloja\12_non_hotel\persontrips_maloja_non_hotel_resolved_offseason_taxi_w15.rou.xml,D:\Dokumente\sumo\maloja\13_private\persontrips_maloja_private_resolved_offseason_taxi_w15.rou.xml"/>
        <additional-files value="D:\Dokumente\sumo\maloja\03_bus\virtualstop.add.xml,D:\Dokumente\sumo\maloja\03_bus\03_November\gtfs_pt_stops.add.xml,drt_fleet.xml"/>
    </input>

    <output>
        <tripinfo-output value="tripinfos_drt.xml"/>
        <tripinfo-output.write-unfinished value="true"/>
        <stop-output value="stopinfos_drt.xml"/>
        <statistic-output value="stats_drt.xml"/>
    </output>

    <time>
        <begin value="20520"/>
        <end value="77400"/>
    </time>

    <routing>
        <routing-algorithm value="CH"/>
        <persontrip.transfer.taxi-walk value="ptStops"/>
        <persontrip.transfer.walk-taxi value="ptStops"/>
    </routing>

    <report>
        <verbose value="true"/>
        <log value="simulation.log.txt"/>
        <error-log value="sumo_error.log"/>
        <duration-log.statistics value="true"/>
    </report>

    <taxi_device>
        <device.taxi.dispatch-algorithm value="traci"/>
    </taxi_device>

    <traci_server>
        <remote-port value="51690"/>
    </traci_server>

</configuration>
-->

<tripinfos xmlns:xsi="http://www.w3.org/2001/XMLSchema-instance" xsi:noNamespaceSchemaLocation="http://sumo.dlr.de/xsd/tripinfo_file.xsd">
    <personinfo id="d92" depart="29122.82" type="DEFAULT_PEDTYPE">
        <walk depart="29123.00" departPos="3.67" arrival="29132.00" arrivalPos="15.00" duration="9.00" routeLength="11.33" timeLoss="1.03" maxSpeed="1.42"/>
        <ride waitingTime="36.00" vehicle="taxi45" depart="29168.00" arrival="29555.00" arrivalPos="6.62" duration="387.00" routeLength="6656.83" timeLoss="44.24"/>
        <walk depart="29555.00" departPos="6.62" arrival="29590.00" arrivalPos="0.67" duration="35.00" routeLength="41.00" timeLoss="6.14" maxSpeed="1.42"/>
    </personinfo>
    <personinfo id="d89" depart="29197.95" type="DEFAULT_PEDTYPE">
        <walk depart="29198.00" departPos="12.17" arrival="29200.00" arrivalPos="15.00" duration="2.00" routeLength="2.83" timeLoss="0.38" maxSpeed="1.75"/>
        <ride waitingTime="57.00" vehicle="taxi36" depart="29257.00" arrival="29673.00" arrivalPos="516.88" duration="416.00" routeLength="7107.84" timeLoss="47.21"/>
        <walk depart="29673.00" departPos="516.88" arrival="29700.00" arrivalPos="23.98" duration="27.00" routeLength="45.61" timeLoss="0.94" maxSpeed="1.75"/>
    </personinfo>
    <personinfo id="tp122" depart="28979.52" type="DEFAULT_PEDTYPE">
        <walk depart="28980.00" departPos="20.32" arrival="28982.00" arrivalPos="18.71" duration="2.00" routeLength="1.61" timeLoss="0.74" maxSpeed="1.28"/>
        <ride waitingTime="33.00" vehicle="taxi19" depart="29015.00" arrival="29368.00" arrivalPos="38.05" duration="353.00" routeLength="3969.70" timeLoss="35.11"/>
        <walk depart="29368.00" departPos="38.05" arrival="29827.00" arrivalPos="105.14" duration="459.00" routeLength="545.83" timeLoss="31.04" maxSpeed="1.28"/>
    </personinfo>
    <personinfo id="d56" depart="28921.78" type="DEFAULT_PEDTYPE">
        <walk depart="28922.00" departPos="26.79" arrival="28930.00" arrivalPos="15.00" duration="8.00" routeLength="11.79" timeLoss="0.60" maxSpeed="1.59"/>
        <ride waitingTime="60.00" vehicle="taxi54" depart="28990.00" arrival="29580.00" arrivalPos="7.50" duration="590.00" routeLength="10563.18" timeLoss="65.21"/>
        <walk depart="29580.00" departPos="7.50" arrival="29858.00" arrivalPos="62.06" duration="278.00" routeLength="460.47" timeLoss="-10.80" maxSpeed="1.59"/>
    </personinfo>
    <personinfo id="th83" depart="29197.95" type="DEFAULT_PEDTYPE">
        <walk depart="29198.00" departPos="25.02" arrival="29360.00" arrivalPos="23.94" duration="162.00" routeLength="239.42" timeLoss="-1.29" maxSpeed="1.47"/>
        <ride waitingTime="76.00" vehicle="taxi47" depart="29436.00" arrival="29923.00" arrivalPos="7.50" duration="487.00" routeLength="8595.03" timeLoss="49.02"/>
        <walk depart="29923.00" departPos="7.50" arrival="29930.00" arrivalPos="1.99" duration="7.00" routeLength="12.70" timeLoss="-1.66" maxSpeed="1.47"/>
    </personinfo>
    <personinfo id="tp83" depart="29197.95" type="DEFAULT_PEDTYPE">
        <walk depart="29198.00" departPos="4.44" arrival="29371.00" arrivalPos="23.94" duration="173.00" routeLength="260.01" timeLoss="0.77" maxSpeed="1.51"/>
        <ride waitingTime="65.00" vehicle="taxi47" depart="29436.00" arrival="29923.00" arrivalPos="7.50" duration="487.00" routeLength="8595.03" timeLoss="49.02"/>
        <walk depart="29923.00" departPos="7.50" arrival="29931.00" arrivalPos="1.99" duration="8.00" routeLength="12.70" timeLoss="-0.41" maxSpeed="1.51"/>
    </personinfo>
    <personinfo id="d128" depart="28979.52" type="DEFAULT_PEDTYPE">
        <walk depart="28980.00" departPos="21.98" arrival="28991.00" arrivalPos="10.00" duration="11.00" routeLength="11.98" timeLoss="1.24" maxSpeed="1.23"/>
        <ride waitingTime="398.00" vehicle="taxi37" depart="29389.00" arrival="29560.00" arrivalPos="38.05" duration="171.00" routeLength="2618.88" timeLoss="25.72"/>
        <walk depart="29560.00" departPos="38.05" arrival="30036.00" arrivalPos="105.14" duration="476.00" routeLength="545.83" timeLoss="31.61" maxSpeed="1.23"/>
    </personinfo>
    <personinfo id="tn85" depart="28889.60" type="DEFAULT_PEDTYPE">
        <walk depart="28890.00" departPos="17.27" arrival="29354.00" arrivalPos="553.86" duration="464.00" routeLength="542.09" timeLoss="49.72" maxSpeed="1.31"/>
        <ride waitingTime="450.00" vehicle="taxi45" depart="29804.00" arrival="30027.00" arrivalPos="15.00" duration="223.00" routeLength="3001.61" timeLoss="39.05"/>
        <walk depart="30027.00" departPos="15.00" arrival="30036.00" arrivalPos="25.50" duration="9.00" routeLength="10.50" timeLoss="0.98" maxSpeed="1.31"/>
    </personinfo>
    <personinfo id="th122" depart="28979.52" type="DEFAULT_PEDTYPE">
        <walk depart="28980.00" departPos="4.92" arrival="28992.00" arrivalPos="18.71" duration="12.00" routeLength="13.79" timeLoss="1.30" maxSpeed="1.29"/>
        <ride waitingTime="53.00" vehicle="taxi37" depart="29045.00" arrival="29560.00" arrivalPos="38.05" duration="515.00" routeLength="5692.65" timeLoss="72.13"/>
        <walk depart="29560.00" departPos="38.05" arrival="30037.00" arrivalPos="105.14" duration="477.00" routeLength="545.83" timeLoss="53.48" maxSpeed="1.29"/>
    </personinfo>
    <personinfo id="tn81" depart="29197.95" type="DEFAULT_PEDTYPE">
        <walk depart="29198.00" departPos="24.40" arrival="29364.00" arrivalPos="23.94" duration="166.00" routeLength="240.04" timeLoss="-1.39" maxSpeed="1.43"/>
        <ride waitingTime="537.00" vehicle="taxi45" depart="29901.00" arrival="30027.00" arrivalPos="15.00" duration="126.00" routeLength="1690.53" timeLoss="18.01"/>
        <walk depart="30027.00" departPos="15.00" arrival="30129.00" arrivalPos="0.24" duration="102.00" routeLength="133.26" timeLoss="9.07" maxSpeed="1.43"/>
    </personinfo>
    <personinfo id="th138" depart="30205.95" type="DEFAULT_PEDTYPE">
        <walk depart="30206.00" departPos="2.63" arrival="30213.00" arrivalPos="5.29" duration="7.00" routeLength="27.84" timeLoss="-14.04" maxSpeed="1.32"/>
        <ride waitingTime="114.00" vehicle="taxi37" depart="30327.00" arrival="30600.00" arrivalPos="10.00" duration="273.00" routeLength="4373.24" timeLoss="48.46"/>
        <walk depart="30600.00" departPos="10.00" arrival="30609.00" arrivalPos="20.38" duration="9.00" routeLength="10.38" timeLoss="1.16" maxSpeed="1.32"/>
    </personinfo>
    <personinfo id="tp138" depart="30205.95" type="DEFAULT_PEDTYPE">
        <walk depart="30206.00" departPos="1.62" arrival="30212.00" arrivalPos="5.29" duration="6.00" routeLength="26.83" timeLoss="-11.58" maxSpeed="1.53"/>
        <ride waitingTime="103.00" vehicle="taxi37" depart="30315.00" arrival="30600.00" arrivalPos="10.00" duration="285.00" routeLength="4407.15" timeLoss="54.98"/>
        <walk depart="30600.00" departPos="10.00" arrival="30610.00" arrivalPos="20.38" duration="10.00" routeLength="10.38" timeLoss="3.20" maxSpeed="1.53"/>
    </personinfo>
    <personinfo id="th129" depart="29903.27" type="DEFAULT_PEDTYPE">
        <walk depart="29904.00" departPos="38.43" arrival="30288.00" arrivalPos="184.55" duration="384.00" routeLength="474.87" timeLoss="55.94" maxSpeed="1.45"/>
        <ride waitingTime="218.00" vehicle="taxi2" depart="30506.00" arrival="30688.00" arrivalPos="15.00" duration="182.00" routeLength="2628.36" timeLoss="27.93"/>
        <walk depart="30688.00" departPos="15.00" arrival="30699.00" arrivalPos="1.24" duration="11.00" routeLength="13.76" timeLoss="1.49" maxSpeed="1.45"/>
    </personinfo>
    <personinfo id="tp129" depart="29903.27" type="DEFAULT_PEDTYPE">
        <walk depart="29904.00" departPos="19.78" arrival="30287.00" arrivalPos="184.55" duration="383.00" routeLength="456.22" timeLoss="40.26" maxSpeed="1.33"/>
        <ride waitingTime="219.00" vehicle="taxi2" depart="30506.00" arrival="30688.00" arrivalPos="15.00" duration="182.00" routeLength="2628.36" timeLoss="27.93"/>
        <walk depart="30688.00" departPos="15.00" arrival="30700.00" arrivalPos="1.24" duration="12.00" routeLength="13.76" timeLoss="1.66" maxSpeed="1.33"/>
    </personinfo>
    <personinfo id="d136" depart="29903.27" type="DEFAULT_PEDTYPE">
        <walk depart="29904.00" departPos="11.53" arrival="29907.00" arrivalPos="15.00" duration="3.00" routeLength="3.47" timeLoss="0.48" maxSpeed="1.38"/>
        <ride waitingTime="328.00" vehicle="taxi1" depart="30235.00" arrival="30489.00" arrivalPos="20.48" duration="254.00" routeLength="3425.92" timeLoss="28.86"/>
        <walk depart="30489.00" departPos="20.48" arrival="30720.00" arrivalPos="1.56" duration="231.00" routeLength="302.54" timeLoss="11.15" maxSpeed="1.38"/>
    </personinfo>
    <personinfo id="d66" depart="30056.12" type="DEFAULT_PEDTYPE">
        <walk depart="30057.00" departPos="18.24" arrival="30060.00" arrivalPos="15.00" duration="3.00" routeLength="3.24" timeLoss="0.34" maxSpeed="1.22"/>
        <ride waitingTime="40.00" vehicle="taxi27" depart="30100.00" arrival="30738.00" arrivalPos="27.49" duration="638.00" routeLength="11140.05" timeLoss="70.59"/>
        <walk depart="30738.00" departPos="27.49" arrival="30777.00" arrivalPos="14.16" duration="39.00" routeLength="44.87" timeLoss="2.08" maxSpeed="1.22"/>
    </personinfo>
    <personinfo id="th32" depart="28958.69" type="DEFAULT_PEDTYPE">
        <walk depart="28959.00" departPos="53.17" arrival="28992.00" arrivalPos="15.53" duration="33.00" routeLength="37.64" timeLoss="4.10" maxSpeed="1.30"/>
        <ride waitingTime="659.00" vehicle="taxi19" depart="29651.00" arrival="30823.00" arrivalPos="4.97" duration="1172.00" routeLength="24309.49" timeLoss="68.10"/>
        <walk depart="30823.00" departPos="4.97" arrival="30842.00" arrivalPos="24.95" duration="19.00" routeLength="40.59" timeLoss="-12.17" maxSpeed="1.30"/>
    </personinfo>
    <personinfo id="d145" depart="30205.95" type="DEFAULT_PEDTYPE">
        <walk depart="30206.00" departPos="14.47" arrival="30207.00" arrivalPos="15.00" duration="1.00" routeLength="0.53" timeLoss="0.60" maxSpeed="1.33"/>
        <ride waitingTime="370.00" vehicle="taxi37" depart="30577.00" arrival="30783.00" arrivalPos="46.08" duration="206.00" routeLength="1735.43" timeLoss="33.29"/>
        <walk depart="30783.00" departPos="46.08" arrival="30870.00" arrivalPos="18.64" duration="87.00" routeLength="51.09" timeLoss="48.62" maxSpeed="1.33"/>
    </personinfo>
    <personinfo id="th26" depart="29784.39" type="DEFAULT_PEDTYPE">
        <walk depart="29785.00" departPos="46.56" arrival="30071.00" arrivalPos="2.55" duration="286.00" routeLength="330.81" timeLoss="51.42" maxSpeed="1.41"/>
        <ride waitingTime="56.00" vehicle="taxi26" depart="30127.00" arrival="30415.00" arrivalPos="10.67" duration="288.00" routeLength="4463.72" timeLoss="35.84"/>
        <walk depart="30415.00" departPos="10.67" arrival="31117.00" arrivalPos="36.60" duration="702.00" routeLength="946.46" timeLoss="30.85" maxSpeed="1.41"/>
    </personinfo>
    <personinfo id="tn64" depart="29217.29" type="DEFAULT_PEDTYPE">
        <walk depart="29218.00" departPos="4.46" arrival="29736.00" arrivalPos="18.71" duration="518.00" routeLength="707.35" timeLoss="21.02" maxSpeed="1.42"/>
        <ride waitingTime="29.00" vehicle="taxi55" depart="29765.00" arrival="30599.00" arrivalPos="4.99" duration="834.00" routeLength="12631.03" timeLoss="88.17"/>
        <walk depart="30599.00" departPos="4.99" arrival="31121.00" arrivalPos="108.49" duration="522.00" routeLength="703.51" timeLoss="27.71" maxSpeed="1.42"/>
    </personinfo>
    <personinfo id="d115" depart="30649.67" type="DEFAULT_PEDTYPE">
        <walk depart="30650.00" departPos="24.10" arrival="30657.00" arrivalPos="15.00" duration="7.00" routeLength="9.10" timeLoss="1.08" maxSpeed="1.54"/>
        <ride waitingTime="321.00" vehicle="taxi37" depart="30978.00" arrival="31122.00" arrivalPos="9.76" duration="144.00" routeLength="1695.26" timeLoss="37.39"/>
        <walk depart="31122.00" departPos="9.76" arrival="31164.00" arrivalPos="27.61" duration="42.00" routeLength="70.61" timeLoss="-3.93" maxSpeed="1.54"/>
    </personinfo>
    <personinfo id="tn32" depart="28958.69" type="DEFAULT_PEDTYPE">
        <walk depart="28959.00" departPos="15.79" arrival="28960.00" arrivalPos="15.53" duration="1.00" routeLength="0.26" timeLoss="0.84" maxSpeed="1.55"/>
        <ride waitingTime="952.00" vehicle="taxi54" depart="29912.00" arrival="31175.00" arrivalPos="4.99" duration="1263.00" routeLength="24303.77" timeLoss="73.39"/>
        <walk depart="31175.00" departPos="4.99" arrival="31195.00" arrivalPos="19.95" duration="20.00" routeLength="45.61" timeLoss="-9.38" maxSpeed="1.55"/>
    </personinfo>
    <personinfo id="tp32" depart="28958.69" type="DEFAULT_PEDTYPE">
        <walk depart="28959.00" departPos="45.57" arrival="28986.00" arrivalPos="15.53" duration="27.00" routeLength="30.04" timeLoss="3.35" maxSpeed="1.27"/>
        <ride waitingTime="926.00" vehicle="taxi54" depart="29912.00" arrival="31175.00" arrivalPos="4.99" duration="1263.00" routeLength="24303.77" timeLoss="73.39"/>
        <walk depart="31175.00" departPos="4.99" arrival="31196.00" arrivalPos="24.95" duration="21.00" routeLength="40.61" timeLoss="-10.97" maxSpeed="1.27"/>
    </personinfo>
    <personinfo id="tn26" depart="29784.39" type="DEFAULT_PEDTYPE">
        <walk depart="29785.00" departPos="22.82" arrival="30080.00" arrivalPos="2.55" duration="295.00" routeLength="307.06" timeLoss="23.77" maxSpeed="1.13"/>
        <ride waitingTime="49.00" vehicle="taxi26" depart="30129.00" arrival="30415.00" arrivalPos="10.67" duration="286.00" routeLength="4463.12" timeLoss="34.87"/>
        <walk depart="30415.00" departPos="10.67" arrival="31295.00" arrivalPos="36.60" duration="880.00" routeLength="946.46" timeLoss="43.98" maxSpeed="1.13"/>
    </personinfo>
    <personinfo id="th109" depart="30649.67" type="DEFAULT_PEDTYPE">
        <walk depart="30650.00" departPos="3.45" arrival="30909.00" arrivalPos="5.29" duration="259.00" routeLength="343.21" timeLoss="35.60" maxSpeed="1.54"/>
        <ride waitingTime="133.00" vehicle="taxi11" depart="31042.00" arrival="31292.00" arrivalPos="7.50" duration="250.00" routeLength="3804.10" timeLoss="41.57"/>
        <walk depart="31292.00" departPos="7.50" arrival="31330.00" arrivalPos="14.92" duration="38.00" routeLength="56.05" timeLoss="1.52" maxSpeed="1.54"/>
    </personinfo>
    <personinfo id="tp109" depart="30649.67" type="DEFAULT_PEDTYPE">
        <walk depart="30650.00" departPos="9.40" arrival="30908.00" arrivalPos="5.29" duration="258.00" routeLength="337.26" timeLoss="-1.07" maxSpeed="1.30"/>
        <ride waitingTime="120.00" vehicle="taxi11" depart="31028.00" arrival="31292.00" arrivalPos="7.50" duration="264.00" routeLength="3838.01" timeLoss="49.64"/>
        <walk depart="31292.00" departPos="7.50" arrival="31339.00" arrivalPos="14.92" duration="47.00" routeLength="56.05" timeLoss="3.94" maxSpeed="1.30"/>
    </personinfo>
    <personinfo id="tn48" depart="30772.95" type="DEFAULT_PEDTYPE">
        <walk depart="30773.00" departPos="7.96" arrival="30819.00" arrivalPos="10.67" duration="46.00" routeLength="63.04" timeLoss="6.01" maxSpeed="1.58"/>
        <ride waitingTime="151.00" vehicle="taxi55" depart="30970.00" arrival="31373.00" arrivalPos="10.00" duration="403.00" routeLength="6728.52" timeLoss="40.35"/>
        <walk depart="31373.00" departPos="10.00" arrival="31380.00" arrivalPos="1.20" duration="7.00" routeLength="8.80" timeLoss="1.42" maxSpeed="1.58"/>
    </personinfo>
    <personinfo id="tn68" depart="30891.43" type="DEFAULT_PEDTYPE">
        <walk depart="30892.00" departPos="0.12" arrival="30900.00" arrivalPos="6.12" duration="8.00" routeLength="8.91" timeLoss="1.70" maxSpeed="1.41"/>
        <ride waitingTime="492.00" vehicle="taxi37" depart="31392.00" arrival="31535.00" arrivalPos="102.22" duration="143.00" routeLength="2587.74" timeLoss="31.04"/>
        <walk depart="31535.00" departPos="102.22" arrival="31586.00" arrivalPos="0.15" duration="51.00" routeLength="63.58" timeLoss="6.04" maxSpeed="1.41"/>
    </personinfo>
    <personinfo id="tp26" depart="29784.39" type="DEFAULT_PEDTYPE">
        <walk depart="29785.00" departPos="147.82" arrival="30133.00" arrivalPos="2.55" duration="348.00" routeLength="432.07" timeLoss="27.61" maxSpeed="1.35"/>
        <ride waitingTime="526.00" vehicle="taxi55" depart="30659.00" arrival="30937.00" arrivalPos="10.67" duration="278.00" routeLength="4463.69" timeLoss="35.70"/>
        <walk depart="30937.00" departPos="10.67" arrival="31674.00" arrivalPos="36.60" duration="737.00" routeLength="946.46" timeLoss="35.17" maxSpeed="1.35"/>
    </personinfo>
    <personinfo id="th156" depart="31417.42" type="DEFAULT_PEDTYPE">
        <walk depart="31418.00" departPos="21.67" arrival="31440.00" arrivalPos="7.50" duration="22.00" routeLength="40.06" timeLoss="-5.00" maxSpeed="1.48"/>
        <ride waitingTime="286.00" vehicle="taxi20" depart="31726.00" arrival="31877.00" arrivalPos="15.00" duration="151.00" routeLength="1487.64" timeLoss="23.57"/>
        <walk depart="31877.00" departPos="15.00" arrival="31879.00" arrivalPos="13.22" duration="2.00" routeLength="1.78" timeLoss="0.80" maxSpeed="1.48"/>
    </personinfo>
    <personinfo id="tp156" depart="31417.42" type="DEFAULT_PEDTYPE">
        <walk depart="31418.00" departPos="4.80" arrival="31430.00" arrivalPos="7.50" duration="12.00" routeLength="23.19" timeLoss="-7.28" maxSpeed="1.20"/>
        <ride waitingTime="150.00" vehicle="taxi20" depart="31580.00" arrival="31877.00" arrivalPos="15.00" duration="297.00" routeLength="2906.34" timeLoss="45.14"/>
        <walk depart="31877.00" departPos="15.00" arrival="31879.00" arrivalPos="13.22" duration="2.00" routeLength="1.78" timeLoss="0.52" maxSpeed="1.20"/>
    </personinfo>
    <personinfo id="th153" depart="30962.87" type="DEFAULT_PEDTYPE">
        <walk depart="30963.00" departPos="22.43" arrival="31514.00" arrivalPos="184.55" duration="551.00" routeLength="664.17" timeLoss="35.39" maxSpeed="1.29"/>
        <ride waitingTime="212.00" vehicle="taxi38" depart="31726.00" arrival="31902.00" arrivalPos="15.00" duration="176.00" routeLength="2628.42" timeLoss="28.75"/>
        <walk depart="31902.00" departPos="15.00" arrival="31915.00" arrivalPos="0.17" duration="13.00" routeLength="14.83" timeLoss="1.49" maxSpeed="1.29"/>
    </personinfo>
    <personinfo id="tp153" depart="30962.87" type="DEFAULT_PEDTYPE">
        <walk depart="30963.00" departPos="102.04" arrival="31515.00" arrivalPos="184.55" duration="552.00" routeLength="743.79" timeLoss="62.25" maxSpeed="1.52"/>
        <ride waitingTime="211.00" vehicle="taxi38" depart="31726.00" arrival="31902.00" arrivalPos="15.00" duration="176.00" routeLength="2628.42" timeLoss="28.75"/>
        <walk depart="31902.00" departPos="15.00" arrival="31915.00" arrivalPos="0.17" duration="13.00" routeLength="14.83" timeLoss="3.24" maxSpeed="1.52"/>
    </personinfo>
    <personinfo id="d29" depart="29784.39" type="DEFAULT_PEDTYPE">
        <walk depart="29785.00" departPos="16.13" arrival="29786.00" arrivalPos="15.00" duration="1.00" routeLength="1.13" timeLoss="0.01" maxSpeed="1.14"/>
        <ride waitingTime="418.00" vehicle="taxi1" depart="30204.00" arrival="31944.00" arrivalPos="7.50" duration="1740.00" routeLength="27500.78" timeLoss="156.91"/>
        <walk depart="31944.00" departPos="7.50" arrival="31974.00" arrivalPos="22.78" duration="30.00" routeLength="40.70" timeLoss="-5.65" maxSpeed="1.14"/>
    </personinfo>
    <personinfo id="d57" depart="30960.73" type="DEFAULT_PEDTYPE">
        <walk depart="30961.00" departPos="19.74" arrival="30965.00" arrivalPos="15.00" duration="4.00" routeLength="4.74" timeLoss="0.95" maxSpeed="1.55"/>
        <ride waitingTime="498.00" vehicle="taxi55" depart="31463.00" arrival="32054.00" arrivalPos="7.50" duration="591.00" routeLength="10563.98" timeLoss="63.18"/>
        <walk depart="32054.00" departPos="7.50" arrival="32064.00" arrivalPos="21.47" duration="10.00" routeLength="13.97" timeLoss="1.02" maxSpeed="1.55"/>
    </personinfo>
    <personinfo id="th89" depart="31346.34" type="DEFAULT_PEDTYPE">
        <walk depart="31347.00" departPos="52.69" arrival="31440.00" arrivalPos="9.76" duration="93.00" routeLength="126.15" timeLoss="6.63" maxSpeed="1.46"/>
        <ride waitingTime="138.00" vehicle="taxi29" depart="31578.00" arrival="32129.00" arrivalPos="27.49" duration="551.00" routeLength="9558.93" timeLoss="63.60"/>
        <walk depart="32129.00" departPos="27.49" arrival="32160.00" arrivalPos="12.82" duration="31.00" routeLength="43.53" timeLoss="1.20" maxSpeed="1.46"/>
    </personinfo>
    <personinfo id="tp89" depart="31346.34" type="DEFAULT_PEDTYPE">
        <walk depart="31347.00" departPos="65.40" arrival="31427.00" arrivalPos="9.76" duration="80.00" routeLength="113.44" timeLoss="1.00" maxSpeed="1.44"/>
        <ride waitingTime="120.00" vehicle="taxi29" depart="31547.00" arrival="32129.00" arrivalPos="27.49" duration="582.00" routeLength="9718.12" timeLoss="79.30"/>
        <walk depart="32129.00" departPos="27.49" arrival="32161.00" arrivalPos="12.82" duration="32.00" routeLength="43.53" timeLoss="1.68" maxSpeed="1.44"/>
    </personinfo>
    <personinfo id="d141" depart="31854.41" type="DEFAULT_PEDTYPE">
        <walk depart="31855.00" departPos="3.05" arrival="31862.00" arrivalPos="10.00" duration="7.00" routeLength="6.95" timeLoss="1.35" maxSpeed="1.23"/>
        <ride waitingTime="126.00" vehicle="taxi38" depart="31988.00" arrival="32129.00" arrivalPos="26.09" duration="141.00" routeLength="1864.75" timeLoss="21.73"/>
        <walk depart="32129.00" departPos="26.09" arrival="32202.00" arrivalPos="36.77" duration="73.00" routeLength="83.57" timeLoss="5.08" maxSpeed="1.23"/>
    </personinfo>
    <personinfo id="th65" depart="29217.29" type="DEFAULT_PEDTYPE">
        <walk depart="29218.00" departPos="4.04" arrival="29775.00" arrivalPos="18.71" duration="557.00" routeLength="707.77" timeLoss="19.96" maxSpeed="1.32"/>
        <ride waitingTime="48.00" vehicle="taxi1" depart="29823.00" arrival="31437.00" arrivalPos="93.33" duration="1614.00" routeLength="22285.13" timeLoss="167.94"/>
        <walk depart="31437.00" departPos="93.33" arrival="32222.00" arrivalPos="16.12" duration="785.00" routeLength="939.66" timeLoss="72.01" maxSpeed="1.32"/>
    </personinfo>
    <personinfo id="tp65" depart="29217.29" type="DEFAULT_PEDTYPE">
        <walk depart="29218.00" departPos="0.09" arrival="29776.00" arrivalPos="18.71" duration="558.00" routeLength="711.72" timeLoss="69.61" maxSpeed="1.46"/>
        <ride waitingTime="47.00" vehicle="taxi1" depart="29823.00" arrival="31437.00" arrivalPos="93.33" duration="1614.00" routeLength="22285.13" timeLoss="167.94"/>
        <walk depart="31437.00" departPos="93.33" arrival="32222.00" arrivalPos="16.12" duration="785.00" routeLength="939.66" timeLoss="140.19" maxSpeed="1.46"/>
    </personinfo>
    <personinfo id="th146" depart="32072.04" type="DEFAULT_PEDTYPE">
        <walk depart="32073.00" departPos="77.30" arrival="32132.00" arrivalPos="7.50" duration="59.00" routeLength="69.80" timeLoss="5.67" maxSpeed="1.31"/>
        <ride waitingTime="169.00" vehicle="taxi56" depart="32301.00" arrival="32517.00" arrivalPos="15.00" duration="216.00" routeLength="2280.36" timeLoss="26.50"/>
        <walk depart="32517.00" departPos="15.00" arrival="32519.00" arrivalPos="12.94" duration="2.00" routeLength="2.06" timeLoss="0.43" maxSpeed="1.31"/>
    </personinfo>
    <personinfo id="tp146" depart="32072.04" type="DEFAULT_PEDTYPE">
        <walk depart="32073.00" departPos="75.39" arrival="32124.00" arrivalPos="7.50" duration="51.00" routeLength="67.89" timeLoss="5.15" maxSpeed="1.48"/>
        <ride waitingTime="177.00" vehicle="taxi56" depart="32301.00" arrival="32517.00" arrivalPos="15.00" duration="216.00" routeLength="2280.36" timeLoss="26.50"/>
        <walk depart="32517.00" departPos="15.00" arrival="32520.00" arrivalPos="12.94" duration="3.00" routeLength="2.06" timeLoss="1.61" maxSpeed="1.48"/>
    </personinfo>
    <personinfo id="d112" depart="32394.65" type="DEFAULT_PEDTYPE">
        <walk depart="32395.00" departPos="0.82" arrival="32402.00" arrivalPos="10.00" duration="7.00" routeLength="9.18" timeLoss="1.40" maxSpeed="1.64"/>
        <ride waitingTime="34.00" vehicle="taxi0" depart="32436.00" arrival="32603.00" arrivalPos="37.32" duration="167.00" routeLength="2066.24" timeLoss="30.05"/>
        <walk depart="32603.00" departPos="37.32" arrival="32709.00" arrivalPos="2.94" duration="106.00" routeLength="161.04" timeLoss="7.74" maxSpeed="1.64"/>
    </personinfo>
    <personinfo id="d100" depart="32367.26" type="DEFAULT_PEDTYPE">
        <walk depart="32368.00" departPos="11.88" arrival="32371.00" arrivalPos="15.00" duration="3.00" routeLength="3.12" timeLoss="0.59" maxSpeed="1.29"/>
        <ride waitingTime="18.00" vehicle="taxi2" depart="32389.00" arrival="32790.00" arrivalPos="6.62" duration="401.00" routeLength="6668.93" timeLoss="44.32"/>
        <walk depart="32790.00" departPos="6.62" arrival="32852.00" arrivalPos="19.40" duration="62.00" routeLength="84.80" timeLoss="-3.49" maxSpeed="1.29"/>
    </personinfo>
    <personinfo id="th106" depart="32394.65" type="DEFAULT_PEDTYPE">
        <walk depart="32395.00" departPos="17.59" arrival="32612.00" arrivalPos="17.78" duration="217.00" routeLength="305.92" timeLoss="12.21" maxSpeed="1.49"/>
        <ride waitingTime="278.00" vehicle="NULL" depart="-1" arrival="32890.00" arrivalPos="18.33" duration="32890.00" routeLength="-1.00" timeLoss="-0.00"/>
        <stop duration="0.00" arrival="32890.00" arrivalPos="24.88" actType="last stage removed"/>
    </personinfo>
    <personinfo id="tp106" depart="32394.65" type="DEFAULT_PEDTYPE">
        <walk depart="32395.00" departPos="24.45" arrival="32613.00" arrivalPos="17.78" duration="218.00" routeLength="312.78" timeLoss="32.61" maxSpeed="1.69"/>
        <ride waitingTime="277.00" vehicle="NULL" depart="-1" arrival="32890.00" arrivalPos="18.33" duration="32890.00" routeLength="-1.00" timeLoss="-0.00"/>
        <stop duration="0.00" arrival="32890.00" arrivalPos="24.08" actType="last stage removed"/>
    </personinfo>
    <personinfo id="d35" depart="31079.74" type="DEFAULT_PEDTYPE">
        <walk depart="31080.00" departPos="1.12" arrival="31092.00" arrivalPos="15.00" duration="12.00" routeLength="13.88" timeLoss="1.44" maxSpeed="1.31"/>
        <ride waitingTime="679.00" vehicle="taxi11" depart="31771.00" arrival="32778.00" arrivalPos="4.17" duration="1007.00" routeLength="17788.40" timeLoss="106.85"/>
        <walk depart="32778.00" departPos="4.17" arrival="32913.00" arrivalPos="1.00" duration="135.00" routeLength="179.39" timeLoss="-1.50" maxSpeed="1.31"/>
    </personinfo>
    <personinfo id="th63" depart="30915.84" type="DEFAULT_PEDTYPE">
        <walk depart="30916.00" departPos="93.41" arrival="31405.00" arrivalPos="87.83" duration="489.00" routeLength="600.19" timeLoss="39.23" maxSpeed="1.33"/>
        <ride waitingTime="532.00" vehicle="taxi11" depart="31937.00" arrival="32849.00" arrivalPos="7.50" duration="912.00" routeLength="16302.92" timeLoss="79.65"/>
        <walk depart="32849.00" departPos="7.50" arrival="32952.00" arrivalPos="7.10" duration="103.00" routeLength="126.94" timeLoss="7.88" maxSpeed="1.33"/>
    </personinfo>
    <personinfo id="tp63" depart="30915.84" type="DEFAULT_PEDTYPE">
        <walk depart="30916.00" departPos="3.75" arrival="31332.00" arrivalPos="87.83" duration="416.00" routeLength="510.53" timeLoss="29.49" maxSpeed="1.32"/>
        <ride waitingTime="560.00" vehicle="taxi11" depart="31892.00" arrival="32849.00" arrivalPos="7.50" duration="957.00" routeLength="16588.86" timeLoss="92.64"/>
        <walk depart="32849.00" departPos="7.50" arrival="32955.00" arrivalPos="7.10" duration="106.00" routeLength="126.94" timeLoss="9.90" maxSpeed="1.32"/>
    </personinfo>
    <personinfo id="d152" depart="32561.15" type="DEFAULT_PEDTYPE">