<?xml version="1.0" encoding="UTF-8"?>

<!-- generated by Eclipse SUMO sumo Version 1.12.0
<configuration xmlns:xsi="http://www.w3.org/2001/XMLSchema-instance" xsi:noNamespaceSchemaLocation="http://sumo.dlr.de/xsd/sumoConfiguration.xsd">

    <input>
        <net-file value="D:\Dokumente\sumo\maloja\simple.net.xml"/>
        <route-files value="D:\Dokumente\sumo\maloja\09_daytrips\persontrips_maloja_daytrips_resolved_offseason_taxi.rou.xml,D:\Dokumente\sumo\maloja\11_hotel\persontrips_maloja_hotel_resolved_offseason_taxi.rou.xml,D:\Dokumente\sumo\maloja\12_non_hotel\persontrips_maloja_non_hotel_resolved_offseason_taxi.rou.xml,D:\Dokumente\sumo\maloja\13_private\persontrips_maloja_private_resolved_offseason_taxi.rou.xml"/>
        <additional-files value="D:\Dokumente\sumo\maloja\03_bus\virtualstop.add.xml,D:\Dokumente\sumo\maloja\03_bus\03_November\gtfs_pt_stops.add.xml,drt_fleet.xml,drt_parking.add.xml,drt_parking_rerouter.add.xml"/>
    </input>

    <output>
        <tripinfo-output value="tripinfos_drt.xml"/>
        <tripinfo-output.write-unfinished value="true"/>
        <stop-output value="stopinfos_drt.xml"/>
        <statistic-output value="stats_drt.xml"/>
    </output>

    <time>
        <begin value="20520"/>
        <end value="77400"/>
    </time>

    <routing>
        <routing-algorithm value="CH"/>
        <persontrip.transfer.taxi-walk value="ptStops"/>
        <persontrip.transfer.walk-taxi value="ptStops"/>
    </routing>

    <report>
        <verbose value="true"/>
        <log value="simulation.log.txt"/>
        <error-log value="sumo_error.log"/>
        <duration-log.statistics value="true"/>
    </report>

    <taxi_device>
        <device.taxi.dispatch-algorithm value="traci"/>
    </taxi_device>

    <traci_server>
        <remote-port value="59003"/>
    </traci_server>

</configuration>
-->

<tripinfos xmlns:xsi="http://www.w3.org/2001/XMLSchema-instance" xsi:noNamespaceSchemaLocation="http://sumo.dlr.de/xsd/tripinfo_file.xsd">
    <personinfo id="d128" depart="28979.52" type="DEFAULT_PEDTYPE">
        <walk depart="28980.00" departPos="15.62" arrival="28984.00" arrivalPos="10.00" duration="4.00" routeLength="5.62" timeLoss="0.39" maxSpeed="1.56"/>
        <ride waitingTime="32.00" vehicle="taxi0" depart="29016.00" arrival="29198.00" arrivalPos="45.55" duration="182.00" routeLength="2626.38" timeLoss="28.09"/>
        <walk depart="29198.00" departPos="45.55" arrival="29579.00" arrivalPos="105.14" duration="381.00" routeLength="553.33" timeLoss="25.44" maxSpeed="1.56"/>
    </personinfo>
    <personinfo id="d92" depart="29122.82" type="DEFAULT_PEDTYPE">
        <walk depart="29123.00" departPos="3.38" arrival="29133.00" arrivalPos="15.00" duration="10.00" routeLength="11.62" timeLoss="1.62" maxSpeed="1.39"/>
        <ride waitingTime="36.00" vehicle="taxi54" depart="29169.00" arrival="29572.00" arrivalPos="13.24" duration="403.00" routeLength="6663.45" timeLoss="45.86"/>
        <walk depart="29572.00" departPos="13.24" arrival="29612.00" arrivalPos="0.67" duration="40.00" routeLength="47.62" timeLoss="5.65" maxSpeed="1.39"/>
    </personinfo>
    <personinfo id="d89" depart="29197.95" type="DEFAULT_PEDTYPE">
        <walk depart="29198.00" departPos="10.86" arrival="29202.00" arrivalPos="15.00" duration="4.00" routeLength="4.14" timeLoss="1.04" maxSpeed="1.40"/>
        <ride waitingTime="55.00" vehicle="taxi45" depart="29257.00" arrival="29654.00" arrivalPos="524.38" duration="397.00" routeLength="7115.34" timeLoss="46.15"/>
        <walk depart="29654.00" departPos="524.38" arrival="29682.00" arrivalPos="23.98" duration="28.00" routeLength="38.11" timeLoss="0.72" maxSpeed="1.40"/>
    </personinfo>
    <personinfo id="th83" depart="29197.95" type="DEFAULT_PEDTYPE">
        <walk depart="29198.00" departPos="101.56" arrival="29295.00" arrivalPos="23.94" duration="97.00" routeLength="162.89" timeLoss="-5.18" maxSpeed="1.59"/>
        <ride waitingTime="82.00" vehicle="taxi65" depart="29377.00" arrival="29870.00" arrivalPos="15.00" duration="493.00" routeLength="8602.56" timeLoss="52.39"/>
        <walk depart="29870.00" departPos="15.00" arrival="29882.00" arrivalPos="1.99" duration="12.00" routeLength="20.20" timeLoss="-0.67" maxSpeed="1.59"/>
    </personinfo>
    <personinfo id="tp83" depart="29197.95" type="DEFAULT_PEDTYPE">
        <walk depart="29198.00" departPos="120.67" arrival="29291.00" arrivalPos="23.94" duration="93.00" routeLength="143.77" timeLoss="-8.29" maxSpeed="1.42"/>
        <ride waitingTime="86.00" vehicle="taxi65" depart="29377.00" arrival="29870.00" arrivalPos="15.00" duration="493.00" routeLength="8602.56" timeLoss="52.39"/>
        <walk depart="29870.00" departPos="15.00" arrival="29884.00" arrivalPos="1.99" duration="14.00" routeLength="20.20" timeLoss="-0.23" maxSpeed="1.42"/>
    </personinfo>
    <personinfo id="th122" depart="28979.52" type="DEFAULT_PEDTYPE">
        <walk depart="28980.00" departPos="29.65" arrival="28991.00" arrivalPos="18.71" duration="11.00" routeLength="10.94" timeLoss="2.42" maxSpeed="1.28"/>
        <ride waitingTime="53.00" vehicle="taxi1" depart="29044.00" arrival="29444.00" arrivalPos="45.55" duration="400.00" routeLength="3973.01" timeLoss="46.22"/>
        <walk depart="29444.00" departPos="45.55" arrival="29907.00" arrivalPos="105.14" duration="463.00" routeLength="553.33" timeLoss="29.05" maxSpeed="1.28"/>
    </personinfo>
    <personinfo id="d56" depart="28921.78" type="DEFAULT_PEDTYPE">
        <walk depart="28922.00" departPos="6.52" arrival="28930.00" arrivalPos="15.00" duration="8.00" routeLength="8.48" timeLoss="1.35" maxSpeed="1.28"/>
        <ride waitingTime="60.00" vehicle="taxi63" depart="28990.00" arrival="29591.00" arrivalPos="15.00" duration="601.00" routeLength="10570.68" timeLoss="70.88"/>
        <walk depart="29591.00" departPos="15.00" arrival="29933.00" arrivalPos="62.06" duration="342.00" routeLength="452.97" timeLoss="-13.05" maxSpeed="1.28"/>
    </personinfo>
    <personinfo id="tp122" depart="28979.52" type="DEFAULT_PEDTYPE">
        <walk depart="28980.00" departPos="29.18" arrival="28990.00" arrivalPos="18.71" duration="10.00" routeLength="10.47" timeLoss="1.10" maxSpeed="1.18"/>
        <ride waitingTime="54.00" vehicle="taxi1" depart="29044.00" arrival="29444.00" arrivalPos="45.55" duration="400.00" routeLength="3973.01" timeLoss="46.22"/>
        <walk depart="29444.00" departPos="45.55" arrival="29947.00" arrivalPos="105.14" duration="503.00" routeLength="553.33" timeLoss="32.55" maxSpeed="1.18"/>
    </personinfo>
    <personinfo id="tn81" depart="29197.95" type="DEFAULT_PEDTYPE">
        <walk depart="29198.00" departPos="14.05" arrival="29377.00" arrivalPos="23.94" duration="179.00" routeLength="250.40" timeLoss="-0.98" maxSpeed="1.39"/>
        <ride waitingTime="368.00" vehicle="taxi1" depart="29745.00" arrival="29882.00" arrivalPos="25.00" duration="137.00" routeLength="1699.73" timeLoss="18.96"/>
        <walk depart="29882.00" departPos="25.00" arrival="29995.00" arrivalPos="0.24" duration="113.00" routeLength="143.26" timeLoss="10.03" maxSpeed="1.39"/>
    </personinfo>
    <personinfo id="tn85" depart="28889.60" type="DEFAULT_PEDTYPE">
        <walk depart="28890.00" departPos="26.86" arrival="29306.00" arrivalPos="553.86" duration="416.00" routeLength="551.68" timeLoss="48.34" maxSpeed="1.50"/>
        <ride waitingTime="517.00" vehicle="taxi54" depart="29823.00" arrival="30047.00" arrivalPos="25.00" duration="224.00" routeLength="3011.61" timeLoss="31.63"/>
        <walk depart="30047.00" departPos="25.00" arrival="30048.00" arrivalPos="25.50" duration="1.00" routeLength="0.50" timeLoss="0.67" maxSpeed="1.50"/>
    </personinfo>
    <personinfo id="d136" depart="29903.27" type="DEFAULT_PEDTYPE">
        <walk depart="29904.00" departPos="12.48" arrival="29906.00" arrivalPos="15.00" duration="2.00" routeLength="2.52" timeLoss="0.24" maxSpeed="1.43"/>
        <ride waitingTime="45.00" vehicle="taxi36" depart="29951.00" arrival="30200.00" arrivalPos="25.48" duration="249.00" routeLength="3430.92" timeLoss="27.46"/>
        <walk depart="30200.00" departPos="25.48" arrival="30425.00" arrivalPos="1.56" duration="225.00" routeLength="307.54" timeLoss="10.65" maxSpeed="1.43"/>
    </personinfo>
    <personinfo id="d145" depart="30205.95" type="DEFAULT_PEDTYPE">
        <walk depart="30206.00" departPos="3.44" arrival="30216.00" arrivalPos="15.00" duration="10.00" routeLength="11.56" timeLoss="1.29" maxSpeed="1.33"/>
        <ride waitingTime="35.00" vehicle="taxi9" depart="30251.00" arrival="30397.00" arrivalPos="53.58" duration="146.00" routeLength="1640.39" timeLoss="23.20"/>
        <walk depart="30397.00" departPos="53.58" arrival="30490.00" arrivalPos="18.64" duration="93.00" routeLength="43.59" timeLoss="60.16" maxSpeed="1.33"/>
    </personinfo>
    <personinfo id="th32" depart="28958.69" type="DEFAULT_PEDTYPE">
        <walk depart="28959.00" departPos="53.62" arrival="28991.00" arrivalPos="15.53" duration="32.00" routeLength="38.09" timeLoss="4.16" maxSpeed="1.37"/>
        <ride waitingTime="500.00" vehicle="taxi0" depart="29491.00" arrival="30721.00" arrivalPos="6.18" duration="1230.00" routeLength="24310.70" timeLoss="72.71"/>
        <walk depart="30721.00" departPos="6.18" arrival="30741.00" arrivalPos="24.95" duration="20.00" routeLength="41.80" timeLoss="-10.56" maxSpeed="1.37"/>
    </personinfo>
    <personinfo id="th129" depart="29903.27" type="DEFAULT_PEDTYPE">
        <walk depart="29904.00" departPos="38.22" arrival="30254.00" arrivalPos="184.55" duration="350.00" routeLength="474.66" timeLoss="36.54" maxSpeed="1.51"/>
        <ride waitingTime="384.00" vehicle="taxi9" depart="30638.00" arrival="30832.00" arrivalPos="25.00" duration="194.00" routeLength="2638.39" timeLoss="26.06"/>
        <walk depart="30832.00" departPos="25.00" arrival="30850.00" arrivalPos="1.24" duration="18.00" routeLength="23.76" timeLoss="2.31" maxSpeed="1.51"/>
    </personinfo>
    <personinfo id="tp129" depart="29903.27" type="DEFAULT_PEDTYPE">
        <walk depart="29904.00" departPos="38.76" arrival="30255.00" arrivalPos="184.55" duration="351.00" routeLength="475.20" timeLoss="69.22" maxSpeed="1.69"/>
        <ride waitingTime="383.00" vehicle="taxi9" depart="30638.00" arrival="30832.00" arrivalPos="25.00" duration="194.00" routeLength="2638.39" timeLoss="26.06"/>
        <walk depart="30832.00" departPos="25.00" arrival="30851.00" arrivalPos="1.24" duration="19.00" routeLength="23.76" timeLoss="4.91" maxSpeed="1.69"/>
    </personinfo>
    <personinfo id="th138" depart="30205.95" type="DEFAULT_PEDTYPE">
        <walk depart="30206.00" departPos="2.43" arrival="30214.00" arrivalPos="5.29" duration="8.00" routeLength="27.64" timeLoss="-17.39" maxSpeed="1.09"/>
        <ride waitingTime="502.00" vehicle="taxi71" depart="30716.00" arrival="30985.00" arrivalPos="20.00" duration="269.00" routeLength="4209.95" timeLoss="36.92"/>
        <walk depart="30985.00" departPos="20.00" arrival="30986.00" arrivalPos="20.38" duration="1.00" routeLength="0.38" timeLoss="0.65" maxSpeed="1.09"/>
    </personinfo>
    <personinfo id="tp138" depart="30205.95" type="DEFAULT_PEDTYPE">
        <walk depart="30206.00" departPos="0.78" arrival="30212.00" arrivalPos="5.29" duration="6.00" routeLength="25.99" timeLoss="-15.17" maxSpeed="1.23"/>
        <ride waitingTime="504.00" vehicle="taxi71" depart="30716.00" arrival="30985.00" arrivalPos="20.00" duration="269.00" routeLength="4209.95" timeLoss="36.92"/>
        <walk depart="30985.00" departPos="20.00" arrival="30986.00" arrivalPos="20.38" duration="1.00" routeLength="0.38" timeLoss="0.69" maxSpeed="1.23"/>
    </personinfo>
    <personinfo id="d115" depart="30649.67" type="DEFAULT_PEDTYPE">
        <walk depart="30650.00" departPos="19.99" arrival="30654.00" arrivalPos="15.00" duration="4.00" routeLength="4.99" timeLoss="0.57" maxSpeed="1.45"/>
        <ride waitingTime="265.00" vehicle="taxi9" depart="30919.00" arrival="31052.00" arrivalPos="17.26" duration="133.00" routeLength="1533.40" timeLoss="24.37"/>
        <walk depart="31052.00" departPos="17.26" arrival="31104.00" arrivalPos="27.61" duration="52.00" routeLength="78.11" timeLoss="-1.82" maxSpeed="1.45"/>
    </personinfo>
    <personinfo id="tn26" depart="29784.39" type="DEFAULT_PEDTYPE">
        <walk depart="29785.00" departPos="92.88" arrival="30097.00" arrivalPos="2.55" duration="312.00" routeLength="377.12" timeLoss="25.94" maxSpeed="1.32"/>
        <ride waitingTime="30.00" vehicle="taxi44" depart="30127.00" arrival="30400.00" arrivalPos="18.17" duration="273.00" routeLength="4471.15" timeLoss="34.92"/>
        <walk depart="30400.00" departPos="18.17" arrival="31145.00" arrivalPos="36.60" duration="745.00" routeLength="938.96" timeLoss="32.76" maxSpeed="1.32"/>
    </personinfo>
    <personinfo id="tp26" depart="29784.39" type="DEFAULT_PEDTYPE">
        <walk depart="29785.00" departPos="104.13" arrival="30098.00" arrivalPos="2.55" duration="313.00" routeLength="388.38" timeLoss="31.52" maxSpeed="1.38"/>
        <ride waitingTime="31.00" vehicle="taxi44" depart="30129.00" arrival="30400.00" arrivalPos="18.17" duration="271.00" routeLength="4470.73" timeLoss="33.94"/>
        <walk depart="30400.00" departPos="18.17" arrival="31145.00" arrivalPos="36.60" duration="745.00" routeLength="938.96" timeLoss="64.48" maxSpeed="1.38"/>
    </personinfo>
    <personinfo id="tp32" depart="28958.69" type="DEFAULT_PEDTYPE">
        <walk depart="28959.00" departPos="49.98" arrival="28988.00" arrivalPos="15.53" duration="29.00" routeLength="34.45" timeLoss="3.74" maxSpeed="1.36"/>
        <ride waitingTime="938.00" vehicle="taxi63" depart="29926.00" arrival="31198.00" arrivalPos="6.18" duration="1272.00" routeLength="24304.97" timeLoss="73.48"/>
        <walk depart="31198.00" departPos="6.18" arrival="31219.00" arrivalPos="24.95" duration="21.00" routeLength="41.80" timeLoss="-9.65" maxSpeed="1.36"/>
    </personinfo>
    <personinfo id="d66" depart="30056.12" type="DEFAULT_PEDTYPE">
        <walk depart="30057.00" departPos="0.64" arrival="30068.00" arrivalPos="15.00" duration="11.00" routeLength="14.36" timeLoss="1.11" maxSpeed="1.45"/>
        <ride waitingTime="486.00" vehicle="taxi36" depart="30554.00" arrival="31182.00" arrivalPos="34.99" duration="628.00" routeLength="11146.75" timeLoss="65.47"/>
        <walk depart="31182.00" departPos="34.99" arrival="31221.00" arrivalPos="14.16" duration="39.00" routeLength="52.37" timeLoss="2.94" maxSpeed="1.45"/>
    </personinfo>
    <personinfo id="tn32" depart="28958.69" type="DEFAULT_PEDTYPE">
        <walk depart="28959.00" departPos="12.01" arrival="28962.00" arrivalPos="15.53" duration="3.00" routeLength="3.52" timeLoss="0.52" maxSpeed="1.42"/>
        <ride waitingTime="964.00" vehicle="taxi63" depart="29926.00" arrival="31198.00" arrivalPos="6.18" duration="1272.00" routeLength="24304.97" timeLoss="73.48"/>
        <walk depart="31198.00" departPos="6.18" arrival="31221.00" arrivalPos="19.95" duration="23.00" routeLength="46.80" timeLoss="-9.97" maxSpeed="1.42"/>
    </personinfo>
    <personinfo id="tn48" depart="30772.95" type="DEFAULT_PEDTYPE">
        <walk depart="30773.00" departPos="6.63" arrival="30825.00" arrivalPos="10.67" duration="52.00" routeLength="61.70" timeLoss="7.04" maxSpeed="1.37"/>
        <ride waitingTime="57.00" vehicle="taxi44" depart="30882.00" arrival="31281.00" arrivalPos="20.00" duration="399.00" routeLength="6731.42" timeLoss="45.45"/>
        <walk depart="31281.00" departPos="20.00" arrival="31297.00" arrivalPos="1.20" duration="16.00" routeLength="18.80" timeLoss="2.30" maxSpeed="1.37"/>
    </personinfo>
    <personinfo id="th26" depart="29784.39" type="DEFAULT_PEDTYPE">
        <walk depart="29785.00" departPos="109.99" arrival="30143.00" arrivalPos="2.55" duration="358.00" routeLength="394.24" timeLoss="27.94" maxSpeed="1.19"/>
        <ride waitingTime="48.00" vehicle="taxi71" depart="30191.00" arrival="30474.00" arrivalPos="18.17" duration="283.00" routeLength="4471.12" timeLoss="37.57"/>
        <walk depart="30474.00" departPos="18.17" arrival="31298.00" arrivalPos="36.60" duration="824.00" routeLength="938.96" timeLoss="37.88" maxSpeed="1.19"/>
    </personinfo>
    <personinfo id="tn68" depart="30891.43" type="DEFAULT_PEDTYPE">
        <walk depart="30892.00" departPos="0.14" arrival="30899.00" arrivalPos="6.12" duration="7.00" routeLength="8.93" timeLoss="1.22" maxSpeed="1.55"/>
        <ride waitingTime="415.00" vehicle="taxi9" depart="31314.00" arrival="31475.00" arrivalPos="109.72" duration="161.00" routeLength="2594.44" timeLoss="30.29"/>
        <walk depart="31475.00" departPos="109.72" arrival="31517.00" arrivalPos="0.15" duration="42.00" routeLength="56.08" timeLoss="5.74" maxSpeed="1.55"/>
    </personinfo>
    <personinfo id="th109" depart="30649.67" type="DEFAULT_PEDTYPE">
        <walk depart="30650.00" departPos="5.27" arrival="30908.00" arrivalPos="5.29" duration="258.00" routeLength="341.40" timeLoss="24.24" maxSpeed="1.46"/>
        <ride waitingTime="397.00" vehicle="taxi9" depart="31305.00" arrival="31653.00" arrivalPos="15.00" duration="348.00" routeLength="3850.12" timeLoss="55.35"/>
        <walk depart="31653.00" departPos="15.00" arrival="31699.00" arrivalPos="14.92" duration="46.00" routeLength="63.55" timeLoss="2.48" maxSpeed="1.46"/>
    </personinfo>
    <personinfo id="tp109" depart="30649.67" type="DEFAULT_PEDTYPE">
        <walk depart="30650.00" departPos="8.64" arrival="30907.00" arrivalPos="5.29" duration="257.00" routeLength="338.03" timeLoss="-4.05" maxSpeed="1.29"/>
        <ride waitingTime="383.00" vehicle="taxi9" depart="31290.00" arrival="31653.00" arrivalPos="15.00" duration="363.00" routeLength="3884.03" timeLoss="64.09"/>
        <walk depart="31653.00" departPos="15.00" arrival="31706.00" arrivalPos="14.92" duration="53.00" routeLength="63.55" timeLoss="3.92" maxSpeed="1.29"/>
    </personinfo>
    <personinfo id="tn64" depart="29217.29" type="DEFAULT_PEDTYPE">
        <walk depart="29218.00" departPos="3.67" arrival="29802.00" arrivalPos="18.71" duration="584.00" routeLength="708.13" timeLoss="21.39" maxSpeed="1.26"/>
        <ride waitingTime="666.00" vehicle="taxi54" depart="30468.00" arrival="31300.00" arrivalPos="5.00" duration="832.00" routeLength="12631.84" timeLoss="89.83"/>
        <walk depart="31300.00" departPos="5.00" arrival="31892.00" arrivalPos="108.49" duration="592.00" routeLength="703.52" timeLoss="33.05" maxSpeed="1.26"/>
    </personinfo>
    <personinfo id="th153" depart="30962.87" type="DEFAULT_PEDTYPE">
        <walk depart="30963.00" departPos="106.42" arrival="31551.00" arrivalPos="184.55" duration="588.00" routeLength="748.17" timeLoss="41.28" maxSpeed="1.37"/>
        <ride waitingTime="227.00" vehicle="taxi56" depart="31778.00" arrival="31970.00" arrivalPos="25.00" duration="192.00" routeLength="2643.35" timeLoss="28.08"/>
        <walk depart="31970.00" departPos="25.00" arrival="31991.00" arrivalPos="0.17" duration="21.00" routeLength="24.83" timeLoss="2.86" maxSpeed="1.37"/>
    </personinfo>
    <personinfo id="d57" depart="30960.73" type="DEFAULT_PEDTYPE">
        <walk depart="30961.00" departPos="24.85" arrival="30970.00" arrivalPos="15.00" duration="9.00" routeLength="9.85" timeLoss="1.82" maxSpeed="1.37"/>
        <ride waitingTime="355.00" vehicle="taxi44" depart="31325.00" arrival="32046.00" arrivalPos="15.00" duration="721.00" routeLength="11784.43" timeLoss="115.07"/>
        <walk depart="32046.00" departPos="15.00" arrival="32052.00" arrivalPos="21.47" duration="6.00" routeLength="6.47" timeLoss="1.29" maxSpeed="1.37"/>
    </personinfo>
    <personinfo id="th156" depart="31417.42" type="DEFAULT_PEDTYPE">
        <walk depart="31418.00" departPos="4.78" arrival="31430.00" arrivalPos="7.50" duration="12.00" routeLength="23.17" timeLoss="-7.20" maxSpeed="1.21"/>
        <ride waitingTime="466.00" vehicle="taxi36" depart="31896.00" arrival="32199.00" arrivalPos="25.00" duration="303.00" routeLength="2916.34" timeLoss="45.08"/>
        <walk depart="32199.00" departPos="25.00" arrival="32210.00" arrivalPos="13.22" duration="11.00" routeLength="11.78" timeLoss="1.24" maxSpeed="1.21"/>
    </personinfo>
    <personinfo id="tp156" depart="31417.42" type="DEFAULT_PEDTYPE">
        <walk depart="31418.00" departPos="30.84" arrival="31448.00" arrivalPos="7.50" duration="30.00" routeLength="49.22" timeLoss="-3.35" maxSpeed="1.48"/>
        <ride waitingTime="595.00" vehicle="taxi36" depart="32043.00" arrival="32199.00" arrivalPos="25.00" duration="156.00" routeLength="1497.64" timeLoss="24.27"/>
        <walk depart="32199.00" departPos="25.00" arrival="32211.00" arrivalPos="13.22" duration="12.00" routeLength="11.78" timeLoss="4.02" maxSpeed="1.48"/>
    </personinfo>
    <personinfo id="tp153" depart="30962.87" type="DEFAULT_PEDTYPE">
        <walk depart="30963.00" departPos="29.92" arrival="31464.00" arrivalPos="184.55" duration="501.00" routeLength="671.67" timeLoss="34.25" maxSpeed="1.44"/>
        <ride waitingTime="282.00" vehicle="taxi36" depart="31746.00" arrival="32199.00" arrivalPos="25.00" duration="453.00" routeLength="4938.60" timeLoss="66.02"/>
        <walk depart="32199.00" departPos="25.00" arrival="32221.00" arrivalPos="0.17" duration="22.00" routeLength="24.83" timeLoss="4.75" maxSpeed="1.44"/>
    </personinfo>
    <personinfo id="d141" depart="31854.41" type="DEFAULT_PEDTYPE">
        <walk depart="31855.00" departPos="25.63" arrival="31869.00" arrivalPos="10.00" duration="14.00" routeLength="15.63" timeLoss="1.13" maxSpeed="1.21"/>
        <ride waitingTime="187.00" vehicle="taxi56" depart="32056.00" arrival="32214.00" arrivalPos="33.59" duration="158.00" routeLength="1872.25" timeLoss="25.11"/>
        <walk depart="32214.00" departPos="33.59" arrival="32281.00" arrivalPos="36.77" duration="67.00" routeLength="76.07" timeLoss="4.37" maxSpeed="1.21"/>
    </personinfo>
    <personinfo id="th89" depart="31346.34" type="DEFAULT_PEDTYPE">
        <walk depart="31347.00" departPos="64.57" arrival="31423.00" arrivalPos="9.76" duration="76.00" routeLength="114.27" timeLoss="0.34" maxSpeed="1.51"/>
        <ride waitingTime="318.00" vehicle="taxi71" depart="31741.00" arrival="32312.00" arrivalPos="34.99" duration="571.00" routeLength="9725.62" timeLoss="76.55"/>
        <walk depart="32312.00" departPos="34.99" arrival="32348.00" arrivalPos="12.82" duration="36.00" routeLength="51.03" timeLoss="2.21" maxSpeed="1.51"/>
    </personinfo>
    <personinfo id="tp89" depart="31346.34" type="DEFAULT_PEDTYPE">
        <walk depart="31347.00" departPos="14.15" arrival="31443.00" arrivalPos="9.76" duration="96.00" routeLength="164.69" timeLoss="4.11" maxSpeed="1.79"/>
        <ride waitingTime="326.00" vehicle="taxi71" depart="31769.00" arrival="32312.00" arrivalPos="34.99" duration="543.00" routeLength="9566.43" timeLoss="63.74"/>
        <walk depart="32312.00" departPos="34.99" arrival="32348.00" arrivalPos="12.82" duration="36.00" routeLength="51.03" timeLoss="7.53" maxSpeed="1.79"/>
    </personinfo>
    <personinfo id="th63" depart="30915.84" type="DEFAULT_PEDTYPE">
        <walk depart="30916.00" departPos="28.57" arrival="31295.00" arrivalPos="87.83" duration="379.00" routeLength="535.34" timeLoss="28.23" maxSpeed="1.53"/>
        <ride waitingTime="152.00" vehicle="taxi44" depart="31447.00" arrival="32462.00" arrivalPos="15.00" duration="1015.00" routeLength="17677.16" timeLoss="118.73"/>
        <walk depart="32462.00" departPos="15.00" arrival="32548.00" arrivalPos="7.10" duration="86.00" routeLength="119.44" timeLoss="7.74" maxSpeed="1.53"/>
    </personinfo>
    <personinfo id="d35" depart="31079.74" type="DEFAULT_PEDTYPE">
        <walk depart="31080.00" departPos="13.91" arrival="31081.00" arrivalPos="15.00" duration="1.00" routeLength="1.09" timeLoss="0.29" maxSpeed="1.53"/>
        <ride waitingTime="244.00" vehicle="taxi44" depart="31325.00" arrival="32462.00" arrivalPos="15.00" duration="1137.00" routeLength="18904.75" timeLoss="144.61"/>
        <walk depart="32462.00" departPos="15.00" arrival="32587.00" arrivalPos="1.00" duration="125.00" routeLength="212.89" timeLoss="-14.43" maxSpeed="1.53"/>
    </personinfo>
    <personinfo id="th146" depart="32072.04" type="DEFAULT_PEDTYPE">
        <walk depart="32073.00" departPos="113.70" arrival="32167.00" arrivalPos="7.50" duration="94.00" routeLength="106.20" timeLoss="9.13" maxSpeed="1.25"/>
        <ride waitingTime="212.00" vehicle="taxi47" depart="32379.00" arrival="32603.00" arrivalPos="25.00" duration="224.00" routeLength="2295.31" timeLoss="32.91"/>
        <walk depart="32603.00" departPos="25.00" arrival="32614.00" arrivalPos="12.94" duration="11.00" routeLength="12.06" timeLoss="1.36" maxSpeed="1.25"/>
    </personinfo>
    <personinfo id="tp146" depart="32072.04" type="DEFAULT_PEDTYPE">
        <walk depart="32073.00" departPos="83.62" arrival="32136.00" arrivalPos="7.50" duration="63.00" routeLength="76.12" timeLoss="6.85" maxSpeed="1.36"/>
        <ride waitingTime="165.00" vehicle="taxi47" depart="32301.00" arrival="32603.00" arrivalPos="25.00" duration="302.00" routeLength="2780.83" timeLoss="47.04"/>
        <walk depart="32603.00" departPos="25.00" arrival="32615.00" arrivalPos="12.94" duration="12.00" routeLength="12.06" timeLoss="3.11" maxSpeed="1.36"/>
    </personinfo>
    <personinfo id="d91" depart="32165.36" type="DEFAULT_PEDTYPE">
        <walk depart="32166.00" departPos="5.17" arrival="32175.00" arrivalPos="15.00" duration="9.00" routeLength="9.83" timeLoss="0.98" maxSpeed="1.23"/>
        <ride waitingTime="83.00" vehicle="taxi18" depart="32258.00" arrival="32686.00" arrivalPos="23.03" duration="428.00" routeLength="6519.98" timeLoss="51.53"/>
        <walk depart="32686.00" departPos="23.03" arrival="32809.00" arrivalPos="33.80" duration="123.00" routeLength="138.69" timeLoss="9.90" maxSpeed="1.23"/>
    </personinfo>
    <personinfo id="th136" depart="32421.41" type="DEFAULT_PEDTYPE">
        <walk depart="32422.00" departPos="2.02" arrival="32615.00" arrivalPos="37.39" duration="193.00" routeLength="264.21" timeLoss="22.96" maxSpeed="1.55"/>
        <ride waitingTime="57.00" vehicle="taxi11" depart="32672.00" arrival="32842.00" arrivalPos="25.00" duration="170.00" routeLength="2129.99" timeLoss="25.51"/>
        <walk depart="32842.00" departPos="25.00" arrival="32853.00" arrivalPos="9.21" duration="11.00" routeLength="15.79" timeLoss="0.84" maxSpeed="1.55"/>
    </personinfo>
    <personinfo id="tp136" depart="32421.41" type="DEFAULT_PEDTYPE">
        <walk depart="32422.00" departPos="3.17" arrival="32614.00" arrivalPos="37.39" duration="192.00" routeLength="263.07" timeLoss="17.03" maxSpeed="1.50"/>
        <ride waitingTime="26.00" vehicle="taxi11" depart="32640.00" arrival="32842.00" arrivalPos="25.00" duration="202.00" routeLength="2304.50" timeLoss="42.89"/>
        <walk depart="32842.00" departPos="25.00" arrival="32855.00" arrivalPos="9.21" duration="13.00" routeLength="15.79" timeLoss="2.50" maxSpeed="1.50"/>
    </personinfo>
    <personinfo id="d135" depart="32308.99" type="DEFAULT_PEDTYPE">
        <walk depart="32309.00" departPos="1.27" arrival="32322.00" arrivalPos="15.00" duration="13.00" routeLength="13.73" timeLoss="1.86" maxSpeed="1.23"/>
        <ride waitingTime="206.00" vehicle="taxi38" depart="32528.00" arrival="32699.00" arrivalPos="95.33" duration="171.00" routeLength="1524.68" timeLoss="51.99"/>
        <walk depart="32699.00" departPos="95.33" arrival="32879.00" arrivalPos="46.41" duration="180.00" routeLength="252.67" timeLoss="-24.95" maxSpeed="1.23"/>
    </personinfo>
    <personinfo id="th106" depart="32394.65" type="DEFAULT_PEDTYPE">
        <walk depart="32395.00" departPos="81.75" arrival="32672.00" arrivalPos="17.78" duration="277.00" routeLength="370.08" timeLoss="19.57" maxSpeed="1.44"/>
        <ride waitingTime="278.00" vehicle="NULL" depart="-1" arrival="32950.00" arrivalPos="25.83" duration="32950.00" routeLength="-1.00" timeLoss="-0.00"/>
        <stop duration="0.00" arrival="32950.00" arrivalPos="24.88" actType="last stage removed"/>
    </personinfo>
    <personinfo id="tp106" depart="32394.65" type="DEFAULT_PEDTYPE">
        <walk depart="32395.00" departPos="87.67" arrival="32707.00" arrivalPos="17.78" duration="312.00" routeLength="376.00" timeLoss="22.28" maxSpeed="1.30"/>
        <ride waitingTime="303.00" vehicle="NULL" depart="-1" arrival="33010.00" arrivalPos="25.83" duration="33010.00" routeLength="-1.00" timeLoss="-0.00"/>
        <stop duration="0.00" arrival="33010.00" arrivalPos="24.08" actType="last stage removed"/>
    </personinfo>
    <personinfo id="d153" depart="32072.04" type="DEFAULT_PEDTYPE">
        <walk depart="32073.00" departPos="8.42" arrival="32078.00" arrivalPos="15.00" duration="5.00" routeLength="6.58" timeLoss="0.84" maxSpeed="1.58"/>
        <ride waitingTime="357.00" vehicle="taxi56" depart="32435.00" arrival="32703.00" arrivalPos="73.53" duration="268.00" routeLength="3232.52" timeLoss="49.37"/>
        <walk depart="32703.00" departPos="73.53" arrival="33016.00" arrivalPos="62.03" duration="313.00" routeLength="460.44" timeLoss="22.14" maxSpeed="1.58"/>
    </personinfo>
    <personinfo id="d42" depart="32180.65" type="DEFAULT_PEDTYPE">
        <walk depart="32181.00" departPos="13.57" arrival="32183.00" arrivalPos="15.00" duration="2.00" routeLength="1.43" timeLoss="0.90" maxSpeed="1.31"/>
        <ride waitingTime="46.00" vehicle="taxi18" depart="32229.00" arrival="33015.00" arrivalPos="25.93" duration="786.00" routeLength="11234.85" timeLoss="106.99"/>
        <walk depart="33015.00" departPos="25.93" arrival="33030.00" arrivalPos="7.56" duration="15.00" routeLength="18.37" timeLoss="0.93" maxSpeed="1.31"/>
    </personinfo>
    <personinfo id="tp63" depart="30915.84" type="DEFAULT_PEDTYPE">