<?xml version="1.0" encoding="UTF-8"?>

<!-- generated by Eclipse SUMO gtfs2fcd.py v1_26_0+0000-fa7df22d7f1
<configuration>
    <gtfs value="D:\Dokumente\sumo\maloja\03_bus\01_February\GTFS_FP2024_2024-02-14_04-15.zip"/>
    <date value="20240214"/>
    <modes value="bus"/>
    <network value="D:\Dokumente\sumo\maloja\osm_modded.net.xml"/>
    <stops value="D:\Dokumente\sumo\maloja\03_bus\osm_stops.add.xml"/>
    <repair value="True"/>
</configuration>
-->

<fcd-export>
    <timestep time="72300"><vehicle id="101.TA.92-1-N-j24-1.1.H" x="9.84528398704088" y="46.4976759754318" until="0" name="St. Moritz, Bahnhof" fareZone="" fareSymbol="" startFare="" speed="20"/></timestep>
    <timestep time="72360"><vehicle id="101.TA.92-1-N-j24-1.1.H" x="9.83937307247055" y="46.4971874484028" until="60" name="St. Moritz, Klinik Gut" fareZone="" fareSymbol="" startFare="" speed="20"/></timestep>
    <timestep time="72480"><vehicle id="101.TA.92-1-N-j24-1.1.H" x="9.83862747078462" y="46.4982510712465" until="240" name="St. Moritz, Schulhausplatz" fareZone="" fareSymbol="" startFare="" speed="20"/></timestep>
    <timestep time="72480"><vehicle id="101.TA.92-1-N-j24-1.1.H" x="9.83687575598035" y="46.496167092983" until="240" name="St. Moritz, Caspar Badrutt" fareZone="" fareSymbol="" startFare="" speed="20"/></timestep>
    <timestep time="72540"><vehicle id="101.TA.92-1-N-j24-1.1.H" x="9.83483658028511" y="46.49159690259" until="300" name="St. Moritz Bad, Via Aruons" fareZone="" fareSymbol="" startFare="" speed="20"/></timestep>
    <timestep time="72600"><vehicle id="101.TA.92-1-N-j24-1.1.H" x="9.83510607487039" y="46.4891106566786" until="360" name="St. Moritz Bad, Via Salet" fareZone="" fareSymbol="" startFare="" speed="20"/></timestep>
    <timestep time="72660"><vehicle id="101.TA.92-1-N-j24-1.1.H" x="9.83751355983216" y="46.4884859849912" until="420" name="St. Moritz Bad, Kath. Kirche" fareZone="" fareSymbol="" startFare="" speed="20"/></timestep>
    <timestep time="72720"><vehicle id="101.TA.92-1-N-j24-1.1.H" x="9.84019053937921" y="46.4866737780177" until="480" name="St. Moritz Bad, Sonne" fareZone="" fareSymbol="" startFare="" speed="20"/></timestep>
    <timestep time="72780"><vehicle id="101.TA.92-1-N-j24-1.1.H" x="9.83674100868771" y="46.4848676959849" until="540" name="St. Moritz Bad, Hallenbad" fareZone="" fareSymbol="" startFare="" speed="20"/></timestep>
    <timestep time="72840"><vehicle id="101.TA.92-1-N-j24-1.1.H" x="9.83409996175203" y="46.4838038113818" until="600" name="St. Moritz Bad, Via San Gian" fareZone="" fareSymbol="" startFare="" speed="20"/></timestep>
    <timestep time="112500"><vehicle id="1014.TA.92-1-N-j24-1.12.H" x="9.87303294617119" y="46.5337591786226" until="0" name="Samedan, Bahnhof" fareZone="" fareSymbol="" startFare="" speed="20"/></timestep>
    <timestep time="112560"><vehicle id="1014.TA.92-1-N-j24-1.12.H" x="9.87264667059897" y="46.5359096904055" until="120" name="Samedan, Post" fareZone="" fareSymbol="" startFare="" speed="20"/></timestep>
    <timestep time="112560"><vehicle id="1014.TA.92-1-N-j24-1.12.H" x="9.87104766939301" y="46.534568720352" until="120" name="Samedan, Chesa Planta" fareZone="" fareSymbol="" startFare="" speed="20"/></timestep>
    <timestep time="112620"><vehicle id="1014.TA.92-1-N-j24-1.12.H" x="9.86937680296431" y="46.5330361426011" until="180" name="Samedan, Central" fareZone="" fareSymbol="" startFare="" speed="20"/></timestep>
    <timestep time="112680"><vehicle id="1014.TA.92-1-N-j24-1.12.H" x="9.87146089442376" y="46.5305826922166" until="240" name="Samedan, Golf" fareZone="" fareSymbol="" startFare="" speed="20"/></timestep>
    <timestep time="112740"><vehicle id="1014.TA.92-1-N-j24-1.12.H" x="9.87342820489626" y="46.5313181209662" until="300" name="Samedan, Porta Samedan" fareZone="" fareSymbol="" startFare="" speed="20"/></timestep>
    <timestep time="113040"><vehicle id="1014.TA.92-1-N-j24-1.12.H" x="9.88268085232398" y="46.5084781033611" until="600" name="Punt Muragl, Talstation" fareZone="" fareSymbol="" startFare="" speed="20"/></timestep>
    <timestep time="113100"><vehicle id="1014.TA.92-1-N-j24-1.12.H" x="9.89267910143762" y="46.5016025839003" until="660" name="Pontresina, Godin" fareZone="" fareSymbol="" startFare="" speed="20"/></timestep>
    <timestep time="113160"><vehicle id="1014.TA.92-1-N-j24-1.12.H" x="9.89807797629593" y="46.4984365847279" until="720" name="Pontresina, Sportpavillon" fareZone="" fareSymbol="" startFare="" speed="20"/></timestep>
    <timestep time="113220"><vehicle id="1014.TA.92-1-N-j24-1.12.H" x="9.89980274164168" y="46.4955239500329" until="780" name="Pontresina, Schlossgarage" fareZone="" fareSymbol="" startFare="" speed="20"/></timestep>
    <timestep time="113340"><vehicle id="1014.TA.92-1-N-j24-1.12.H" x="9.90300074405359" y="46.4924812860447" until="900" name="Pontresina, Rondo" fareZone="" fareSymbol="" startFare="" speed="20"/></timestep>
    <timestep time="113460"><vehicle id="1014.TA.92-1-N-j24-1.12.H" x="9.90671078617752" y="46.4879850054838" until="1020" name="Pontresina, Post" fareZone="" fareSymbol="" startFare="" speed="20"/></timestep>
    <timestep time="113880"><vehicle id="1014.TA.92-1-N-j24-1.12.H" x="9.89608371636491" y="46.4910341056312" until="1440" name="Pontresina, Bahnhof" fareZone="" fareSymbol="" startFare="" speed="20"/></timestep>
    <timestep time="114120"><vehicle id="1014.TA.92-1-N-j24-1.12.H" x="9.88268085232398" y="46.5084781033611" until="1680" name="Punt Muragl, Talstation" fareZone="" fareSymbol="" startFare="" speed="20"/></timestep>
    <timestep time="114540"><vehicle id="1014.TA.92-1-N-j24-1.12.H" x="9.84528398704088" y="46.4976759754318" until="2100" name="St. Moritz, Bahnhof" fareZone="" fareSymbol="" startFare="" speed="20"/></timestep>
    <timestep time="114600"><vehicle id="1014.TA.92-1-N-j24-1.12.H" x="9.83937307247055" y="46.4971874484028" until="2160" name="St. Moritz, Klinik Gut" fareZone="" fareSymbol="" startFare="" speed="20"/></timestep>
    <timestep time="114720"><vehicle id="1014.TA.92-1-N-j24-1.12.H" x="9.83862747078462" y="46.4982510712465" until="2340" name="St. Moritz, Schulhausplatz" fareZone="" fareSymbol="" startFare="" speed="20"/></timestep>
    <timestep time="114720"><vehicle id="1014.TA.92-1-N-j24-1.12.H" x="9.83687575598035" y="46.496167092983" until="2340" name="St. Moritz, Caspar Badrutt" fareZone="" fareSymbol="" startFare="" speed="20"/></timestep>
    <timestep time="114780"><vehicle id="1014.TA.92-1-N-j24-1.12.H" x="9.83483658028511" y="46.49159690259" until="2400" name="St. Moritz Bad, Via Aruons" fareZone="" fareSymbol="" startFare="" speed="20"/></timestep>
    <timestep time="114840"><vehicle id="1014.TA.92-1-N-j24-1.12.H" x="9.83510607487039" y="46.4891106566786" until="2460" name="St. Moritz Bad, Via Salet" fareZone="" fareSymbol="" startFare="" speed="20"/></timestep>
    <timestep time="114900"><vehicle id="1014.TA.92-1-N-j24-1.12.H" x="9.83751355983216" y="46.4884859849912" until="2520" name="St. Moritz Bad, Kath. Kirche" fareZone="" fareSymbol="" startFare="" speed="20"/></timestep>
    <timestep time="114960"><vehicle id="1014.TA.92-1-N-j24-1.12.H" x="9.84019053937921" y="46.4866737780177" until="2580" name="St. Moritz Bad, Sonne" fareZone="" fareSymbol="" startFare="" speed="20"/></timestep>
    <timestep time="115020"><vehicle id="1014.TA.92-1-N-j24-1.12.H" x="9.83674100868771" y="46.4848676959849" until="2640" name="St. Moritz Bad, Hallenbad" fareZone="" fareSymbol="" startFare="" speed="20"/></timestep>
    <timestep time="115080"><vehicle id="1014.TA.92-1-N-j24-1.12.H" x="9.83409996175203" y="46.4838038113818" until="2760" name="St. Moritz Bad, Via San Gian" fareZone="" fareSymbol="" startFare="" speed="20"/></timestep>
    <timestep time="115080"><vehicle id="1014.TA.92-1-N-j24-1.12.H" x="9.83210570182101" y="46.4835254660462" until="2760" name="St. Moritz Bad, Signalbahn" fareZone="" fareSymbol="" startFare="" speed="20"/></timestep>
    <timestep time="115140"><vehicle id="1014.TA.92-1-N-j24-1.12.H" x="9.82370645391332" y="46.4788614234688" until="2820" name="St. Moritz Bad, Campingplatz" fareZone="" fareSymbol="" startFare="" speed="20"/></timestep>
    <timestep time="115440"><vehicle id="1014.TA.92-1-N-j24-1.12.H" x="9.79804158624245" y="46.4600836804969" until="3120" name="Silvaplana, Rundella Curtins" fareZone="" fareSymbol="" startFare="" speed="20"/></timestep>
    <timestep time="115500"><vehicle id="1014.TA.92-1-N-j24-1.12.H" x="9.80385368613152" y="46.4597928374937" until="3180" name="Surlej, Punt" fareZone="" fareSymbol="" startFare="" speed="20"/></timestep>
    <timestep time="115560"><vehicle id="1014.TA.92-1-N-j24-1.12.H" x="9.81113902308674" y="46.4589759935165" until="3240" name="Surlej, Foppas" fareZone="" fareSymbol="" startFare="" speed="20"/></timestep>
    <timestep time="115740"><vehicle id="1014.TA.92-1-N-j24-1.12.H" x="9.81378007002242" y="46.4550401189539" until="3420" name="Surlej, Corvatschbahn" fareZone="" fareSymbol="" startFare="" speed="20"/></timestep>
    <timestep time="190620"><vehicle id="1599.TA.92-1-N-j24-1.13.R" x="9.83409996175203" y="46.4838038113818" until="0" name="St. Moritz Bad, Via San Gian" fareZone="" fareSymbol="" startFare="" speed="20"/></timestep>
    <timestep time="190680"><vehicle id="1599.TA.92-1-N-j24-1.13.R" x="9.83716321687131" y="46.484948105022" until="60" name="St. Moritz Bad, Hallenbad" fareZone="" fareSymbol="" startFare="" speed="20"/></timestep>
    <timestep time="190800"><vehicle id="1599.TA.92-1-N-j24-1.13.R" x="9.84019053937921" y="46.4866737780177" until="180" name="St. Moritz Bad, Sonne" fareZone="" fareSymbol="" startFare="" speed="20"/></timestep>
    <timestep time="190860"><vehicle id="1599.TA.92-1-N-j24-1.13.R" x="9.83751355983216" y="46.4884859849912" until="240" name="St. Moritz Bad, Kath. Kirche" fareZone="" fareSymbol="" startFare="" speed="20"/></timestep>
    <timestep time="190920"><vehicle id="1599.TA.92-1-N-j24-1.13.R" x="9.83510607487039" y="46.4891106566786" until="300" name="St. Moritz Bad, Via Salet" fareZone="" fareSymbol="" startFare="" speed="20"/></timestep>
    <timestep time="190980"><vehicle id="1599.TA.92-1-N-j24-1.13.R" x="9.83483658028511" y="46.49159690259" until="360" name="St. Moritz Bad, Via Aruons" fareZone="" fareSymbol="" startFare="" speed="20"/></timestep>
    <timestep time="191160"><vehicle id="1599.TA.92-1-N-j24-1.13.R" x="9.83904069581538" y="46.4983623794113" until="540" name="St. Moritz, Schulhausplatz" fareZone="" fareSymbol="" startFare="" speed="20"/></timestep>
    <timestep time="191220"><vehicle id="1599.TA.92-1-N-j24-1.13.R" x="9.83937307247055" y="46.4971874484028" until="600" name="St. Moritz, Klinik Gut" fareZone="" fareSymbol="" startFare="" speed="20"/></timestep>
    <timestep time="191340"><vehicle id="1599.TA.92-1-N-j24-1.13.R" x="9.84528398704088" y="46.4976759754318" until="720" name="St. Moritz, Bahnhof" fareZone="" fareSymbol="" startFare="" speed="20"/></timestep>
    <timestep time="263760"><vehicle id="1778.TA.92-1-N-j24-1.14.R" x="9.90658502203773" y="46.488263328002" until="0" name="Pontresina, Post" fareZone="" fareSymbol="" startFare="" speed="20"/></timestep>
    <timestep time="263820"><vehicle id="1778.TA.92-1-N-j24-1.14.R" x="9.90283904730243" y="46.4918690221077" until="60" name="Pontresina, Punt Ota Sur" fareZone="" fareSymbol="" startFare="" speed="20"/></timestep>
    <timestep time="263940"><vehicle id="1778.TA.92-1-N-j24-1.14.R" x="9.89980274164168" y="46.4955239500329" until="180" name="Pontresina, Schlossgarage" fareZone="" fareSymbol="" startFare="" speed="20"/></timestep>
    <timestep time="264000"><vehicle id="1778.TA.92-1-N-j24-1.14.R" x="9.89807797629593" y="46.4984365847279" until="240" name="Pontresina, Sportpavillon" fareZone="" fareSymbol="" startFare="" speed="20"/></timestep>
    <timestep time="264060"><vehicle id="1778.TA.92-1-N-j24-1.14.R" x="9.89267910143762" y="46.5016025839003" until="300" name="Pontresina, Godin" fareZone="" fareSymbol="" startFare="" speed="20"/></timestep>
    <timestep time="264240"><vehicle id="1778.TA.92-1-N-j24-1.14.R" x="9.88268085232398" y="46.5084781033611" until="480" name="Punt Muragl, Talstation" fareZone="" fareSymbol="" startFare="" speed="20"/></timestep>
    <timestep time="264420"><vehicle id="1778.TA.92-1-N-j24-1.14.R" x="9.87342820489626" y="46.5313181209662" until="660" name="Samedan, Porta Samedan" fareZone="" fareSymbol="" startFare="" speed="20"/></timestep>
    <timestep time="264480"><vehicle id="1778.TA.92-1-N-j24-1.14.R" x="9.87146089442376" y="46.5305826922166" until="720" name="Samedan, Golf" fareZone="" fareSymbol="" startFare="" speed="20"/></timestep>
    <timestep time="264720"><vehicle id="1778.TA.92-1-N-j24-1.14.R" x="9.87303294617119" y="46.5337591786226" until="960" name="Samedan, Bahnhof" fareZone="" fareSymbol="" startFare="" speed="20"/></timestep>
    <timestep time="287460"><vehicle id="2034.TA.92-1-N-j24-1.15.R" x="9.83409996175203" y="46.4838038113818" until="0" name="St. Moritz Bad, Via San Gian" fareZone="" fareSymbol="" startFare="" speed="20"/></timestep>
    <timestep time="287520"><vehicle id="2034.TA.92-1-N-j24-1.15.R" x="9.83716321687131" y="46.484948105022" until="60" name="St. Moritz Bad, Hallenbad" fareZone="" fareSymbol="" startFare="" speed="20"/></timestep>
    <timestep time="287640"><vehicle id="2034.TA.92-1-N-j24-1.15.R" x="9.84019053937921" y="46.4866737780177" until="180" name="St. Moritz Bad, Sonne" fareZone="" fareSymbol="" startFare="" speed="20"/></timestep>
    <timestep time="287700"><vehicle id="2034.TA.92-1-N-j24-1.15.R" x="9.83751355983216" y="46.4884859849912" until="240" name="St. Moritz Bad, Kath. Kirche" fareZone="" fareSymbol="" startFare="" speed="20"/></timestep>
    <timestep time="287760"><vehicle id="2034.TA.92-1-N-j24-1.15.R" x="9.83510607487039" y="46.4891106566786" until="300" name="St. Moritz Bad, Via Salet" fareZone="" fareSymbol="" startFare="" speed="20"/></timestep>
    <timestep time="287820"><vehicle id="2034.TA.92-1-N-j24-1.15.R" x="9.83483658028511" y="46.49159690259" until="360" name="St. Moritz Bad, Via Aruons" fareZone="" fareSymbol="" startFare="" speed="20"/></timestep>
    <timestep time="288000"><vehicle id="2034.TA.92-1-N-j24-1.15.R" x="9.83904069581538" y="46.4983623794113" until="540" name="St. Moritz, Schulhausplatz" fareZone="" fareSymbol="" startFare="" speed="20"/></timestep>
    <timestep time="288060"><vehicle id="2034.TA.92-1-N-j24-1.15.R" x="9.83937307247055" y="46.4971874484028" until="600" name="St. Moritz, Klinik Gut" fareZone="" fareSymbol="" startFare="" speed="20"/></timestep>
    <timestep time="288180"><vehicle id="2034.TA.92-1-N-j24-1.15.R" x="9.84528398704088" y="46.4976759754318" until="780" name="St. Moritz, Bahnhof" fareZone="" fareSymbol="" startFare="" speed="20"/></timestep>
    <timestep time="288420"><vehicle id="2034.TA.92-1-N-j24-1.15.R" x="9.88268085232398" y="46.5084781033611" until="1020" name="Punt Muragl, Talstation" fareZone="" fareSymbol="" startFare="" speed="20"/></timestep>
    <timestep time="288780"><vehicle id="2034.TA.92-1-N-j24-1.15.R" x="9.89608371636491" y="46.4910341056312" until="1380" name="Pontresina, Bahnhof" fareZone="" fareSymbol="" startFare="" speed="20"/></timestep>
    <timestep time="314820"><vehicle id="2071.TA.92-1-N-j24-1.17.R" x="9.81044732031787" y="46.4774200668457" until="0" name="Champfèr, Guardalej" fareZone="" fareSymbol="" startFare="" speed="20"/></timestep>
    <timestep time="314940"><vehicle id="2071.TA.92-1-N-j24-1.17.R" x="9.81312429986492" y="46.4781190986457" until="120" name="Champfèr, Schulhaus" fareZone="" fareSymbol="" startFare="" speed="20"/></timestep>
    <timestep time="315000"><vehicle id="2071.TA.92-1-N-j24-1.17.R" x="9.82370645391332" y="46.4788614234688" until="180" name="St. Moritz Bad, Campingplatz" fareZone="" fareSymbol="" startFare="" speed="20"/></timestep>
    <timestep time="315120"><vehicle id="2071.TA.92-1-N-j24-1.17.R" x="9.83210570182101" y="46.4835254660462" until="300" name="St. Moritz Bad, Signalbahn" fareZone="" fareSymbol="" startFare="" speed="20"/></timestep>
    <timestep time="315180"><vehicle id="2071.TA.92-1-N-j24-1.17.R" x="9.83409996175203" y="46.4838038113818" until="360" name="St. Moritz Bad, Via San Gian" fareZone="" fareSymbol="" startFare="" speed="20"/></timestep>
    <timestep time="315240"><vehicle id="2071.TA.92-1-N-j24-1.17.R" x="9.83716321687131" y="46.484948105022" until="420" name="St. Moritz Bad, Hallenbad" fareZone="" fareSymbol="" startFare="" speed="20"/></timestep>
    <timestep time="315360"><vehicle id="2071.TA.92-1-N-j24-1.17.R" x="9.84019053937921" y="46.4866737780177" until="540" name="St. Moritz Bad, Sonne" fareZone="" fareSymbol="" startFare="" speed="20"/></timestep>
    <timestep time="315420"><vehicle id="2071.TA.92-1-N-j24-1.17.R" x="9.83751355983216" y="46.4884859849912" until="600" name="St. Moritz Bad, Kath. Kirche" fareZone="" fareSymbol="" startFare="" speed="20"/></timestep>
    <timestep time="315480"><vehicle id="2071.TA.92-1-N-j24-1.17.R" x="9.83510607487039" y="46.4891106566786" until="660" name="St. Moritz Bad, Via Salet" fareZone="" fareSymbol="" startFare="" speed="20"/></timestep>
    <timestep time="315540"><vehicle id="2071.TA.92-1-N-j24-1.17.R" x="9.83483658028511" y="46.49159690259" until="720" name="St. Moritz Bad, Via Aruons" fareZone="" fareSymbol="" startFare="" speed="20"/></timestep>
    <timestep time="315720"><vehicle id="2071.TA.92-1-N-j24-1.17.R" x="9.83904069581538" y="46.4983623794113" until="900" name="St. Moritz, Schulhausplatz" fareZone="" fareSymbol="" startFare="" speed="20"/></timestep>
    <timestep time="315780"><vehicle id="2071.TA.92-1-N-j24-1.17.R" x="9.83937307247055" y="46.4971874484028" until="960" name="St. Moritz, Klinik Gut" fareZone="" fareSymbol="" startFare="" speed="20"/></timestep>
    <timestep time="315900"><vehicle id="2071.TA.92-1-N-j24-1.17.R" x="9.84528398704088" y="46.4976759754318" until="1080" name="St. Moritz, Bahnhof" fareZone="" fareSymbol="" startFare="" speed="20"/></timestep>
    <timestep time="341100"><vehicle id="2340.TA.92-1-N-j24-1.24.R" x="9.81113902308674" y="46.4589759935165" until="0" name="Surlej, Foppas" fareZone="" fareSymbol="" startFare="" speed="20"/></timestep>
    <timestep time="341160"><vehicle id="2340.TA.92-1-N-j24-1.24.R" x="9.80385368613152" y="46.4597928374937" until="60" name="Surlej, Punt" fareZone="" fareSymbol="" startFare="" speed="20"/></timestep>
    <timestep time="341280"><vehicle id="2340.TA.92-1-N-j24-1.24.R" x="9.79804158624245" y="46.4600836804969" until="180" name="Silvaplana, Rundella Curtins" fareZone="" fareSymbol="" startFare="" speed="20"/></timestep>
    <timestep time="341460"><vehicle id="2340.TA.92-1-N-j24-1.24.R" x="9.82370645391332" y="46.4788614234688" until="360" name="St. Moritz Bad, Campingplatz" fareZone="" fareSymbol="" startFare="" speed="20"/></timestep>
    <timestep time="341580"><vehicle id="2340.TA.92-1-N-j24-1.24.R" x="9.83210570182101" y="46.4835254660462" until="480" name="St. Moritz Bad, Signalbahn" fareZone="" fareSymbol="" startFare="" speed="20"/></timestep>
    <timestep time="341640"><vehicle id="2340.TA.92-1-N-j24-1.24.R" x="9.83409996175203" y="46.4838038113818" until="540" name="St. Moritz Bad, Via San Gian" fareZone="" fareSymbol="" startFare="" speed="20"/></timestep>
    <timestep time="341700"><vehicle id="2340.TA.92-1-N-j24-1.24.R" x="9.83716321687131" y="46.484948105022" until="600" name="St. Moritz Bad, Hallenbad" fareZone="" fareSymbol="" startFare="" speed="20"/></timestep>
    <timestep time="341820"><vehicle id="2340.TA.92-1-N-j24-1.24.R" x="9.84019053937921" y="46.4866737780177" until="720" name="St. Moritz Bad, Sonne" fareZone="" fareSymbol="" startFare="" speed="20"/></timestep>
    <timestep time="341880"><vehicle id="2340.TA.92-1-N-j24-1.24.R" x="9.83751355983216" y="46.4884859849912" until="780" name="St. Moritz Bad, Kath. Kirche" fareZone="" fareSymbol="" startFare="" speed="20"/></timestep>
    <timestep time="341940"><vehicle id="2340.TA.92-1-N-j24-1.24.R" x="9.83510607487039" y="46.4891106566786" until="840" name="St. Moritz Bad, Via Salet" fareZone="" fareSymbol="" startFare="" speed="20"/></timestep>
    <timestep time="342000"><vehicle id="2340.TA.92-1-N-j24-1.24.R" x="9.83483658028511" y="46.49159690259" until="900" name="St. Moritz Bad, Via Aruons" fareZone="" fareSymbol="" startFare="" speed="20"/></timestep>
    <timestep time="342180"><vehicle id="2340.TA.92-1-N-j24-1.24.R" x="9.83904069581538" y="46.4983623794113" until="1080" name="St. Moritz, Schulhausplatz" fareZone="" fareSymbol="" startFare="" speed="20"/></timestep>
    <timestep time="342240"><vehicle id="2340.TA.92-1-N-j24-1.24.R" x="9.83937307247055" y="46.4971874484028" until="1140" name="St. Moritz, Klinik Gut" fareZone="" fareSymbol="" startFare="" speed="20"/></timestep>
    <timestep time="342360"><vehicle id="2340.TA.92-1-N-j24-1.24.R" x="9.84528398704088" y="46.4976759754318" until="1320" name="St. Moritz, Bahnhof" fareZone="" fareSymbol="" startFare="" speed="20"/></timestep>
    <timestep time="342600"><vehicle id="2340.TA.92-1-N-j24-1.24.R" x="9.88268085232398" y="46.5084781033611" until="1560" name="Punt Muragl, Talstation" fareZone="" fareSymbol="" startFare="" speed="20"/></timestep>
    <timestep time="342960"><vehicle id="2340.TA.92-1-N-j24-1.24.R" x="9.89608371636491" y="46.4910341056312" until="1920" name="Pontresina, Bahnhof" fareZone="" fareSymbol="" startFare="" speed="20"/></timestep>
    <timestep time="343200"><vehicle id="2340.TA.92-1-N-j24-1.24.R" x="9.90658502203773" y="46.488263328002" until="2220" name="Pontresina, Post" fareZone="" fareSymbol="" startFare="" speed="20"/></timestep>
    <timestep time="343260"><vehicle id="2340.TA.92-1-N-j24-1.24.R" x="9.90283904730243" y="46.4918690221077" until="2280" name="Pontresina, Punt Ota Sur" fareZone="" fareSymbol="" startFare="" speed="20"/></timestep>
    <timestep time="343380"><vehicle id="2340.TA.92-1-N-j24-1.24.R" x="9.89980274164168" y="46.4955239500329" until="2400" name="Pontresina, Schlossgarage" fareZone="" fareSymbol="" startFare="" speed="20"/></timestep>
    <timestep time="343440"><vehicle id="2340.TA.92-1-N-j24-1.24.R" x="9.89807797629593" y="46.4984365847279" until="2460" name="Pontresina, Sportpavillon" fareZone="" fareSymbol="" startFare="" speed="20"/></timestep>
    <timestep time="343500"><vehicle id="2340.TA.92-1-N-j24-1.24.R" x="9.89267910143762" y="46.5016025839003" until="2520" name="Pontresina, Godin" fareZone="" fareSymbol="" startFare="" speed="20"/></timestep>
    <timestep time="343680"><vehicle id="2340.TA.92-1-N-j24-1.24.R" x="9.88268085232398" y="46.5084781033611" until="2700" name="Punt Muragl, Talstation" fareZone="" fareSymbol="" startFare="" speed="20"/></timestep>
    <timestep time="343860"><vehicle id="2340.TA.92-1-N-j24-1.24.R" x="9.87342820489626" y="46.5313181209662" until="2880" name="Samedan, Porta Samedan" fareZone="" fareSymbol="" startFare="" speed="20"/></timestep>
    <timestep time="343920"><vehicle id="2340.TA.92-1-N-j24-1.24.R" x="9.87146089442376" y="46.5305826922166" until="2940" name="Samedan, Golf" fareZone="" fareSymbol="" startFare="" speed="20"/></timestep>
    <timestep time="344160"><vehicle id="2340.TA.92-1-N-j24-1.24.R" x="9.87303294617119" y="46.5337591786226" until="3180" name="Samedan, Bahnhof" fareZone="" fareSymbol="" startFare="" speed="20"/></timestep>
    <timestep time="369600"><vehicle id="238.TA.92-1-N-j24-1.2.H" x="9.87303294617119" y="46.5337591786226" until="0" name="Samedan, Bahnhof" fareZone="" fareSymbol="" startFare="" speed="20"/></timestep>
    <timestep time="369660"><vehicle id="238.TA.92-1-N-j24-1.2.H" x="9.87264667059897" y="46.5359096904055" until="60" name="Samedan, Post" fareZone="" fareSymbol="" startFare="" speed="20"/></timestep>
    <timestep time="369660"><vehicle id="238.TA.92-1-N-j24-1.2.H" x="9.87104766939301" y="46.534568720352" until="60" name="Samedan, Chesa Planta" fareZone="" fareSymbol="" startFare="" speed="20"/></timestep>
    <timestep time="369720"><vehicle id="238.TA.92-1-N-j24-1.2.H" x="9.86937680296431" y="46.5330361426011" until="120" name="Samedan, Central" fareZone="" fareSymbol="" startFare="" speed="20"/></timestep>
    <timestep time="369780"><vehicle id="238.TA.92-1-N-j24-1.2.H" x="9.87146089442376" y="46.5305826922166" until="180" name="Samedan, Golf" fareZone="" fareSymbol="" startFare="" speed="20"/></timestep>
    <timestep time="370080"><vehicle id="238.TA.92-1-N-j24-1.2.H" x="9.88268085232398" y="46.5084781033611" until="480" name="Punt Muragl, Talstation" fareZone="" fareSymbol="" startFare="" speed="20"/></timestep>
    <timestep time="370140"><vehicle id="238.TA.92-1-N-j24-1.2.H" x="9.89267910143762" y="46.5016025839003" until="540" name="Pontresina, Godin" fareZone="" fareSymbol="" startFare="" speed="20"/></timestep>
    <timestep time="370200"><vehicle id="238.TA.92-1-N-j24-1.2.H" x="9.89807797629593" y="46.4984365847279" until="600" name="Pontresina, Sportpavillon" fareZone="" fareSymbol="" startFare="" speed="20"/></timestep>
    <timestep time="370260"><vehicle id="238.TA.92-1-N-j24-1.2.H" x="9.89980274164168" y="46.4955239500329" until="660" name="Pontresina, Schlossgarage" fareZone="" fareSymbol="" startFare="" speed="20"/></timestep>
    <timestep time="370380"><vehicle id="238.TA.92-1-N-j24-1.2.H" x="9.90283904730243" y="46.4918690221077" until="780" name="Pontresina, Punt Ota Sur" fareZone="" fareSymbol="" startFare="" speed="20"/></timestep>
    <timestep time="370380"><vehicle id="238.TA.92-1-N-j24-1.2.H" x="9.89943443237514" y="46.4905517036027" until="780" name="Pontresina, Gitögla" fareZone="" fareSymbol="" startFare="" speed="20"/></timestep>
    <timestep time="370500"><vehicle id="238.TA.92-1-N-j24-1.2.H" x="9.90658502203773" y="46.488263328002" until="900" name="Pontresina, Post" fareZone="" fareSymbol="" startFare="" speed="20"/></timestep>
    <timestep time="413640"><vehicle id="2401.TA.92-1-N-j24-1.25.R" x="9.81378007002242" y="46.4550401189539" until="0" name="Surlej, Corvatschbahn" fareZone="" fareSymbol="" startFare="" speed="20"/></timestep>
    <timestep time="413700"><vehicle id="2401.TA.92-1-N-j24-1.25.R" x="9.81113902308674" y="46.4589759935165" until="60" name="Surlej, Foppas" fareZone="" fareSymbol="" startFare="" speed="20"/></timestep>
    <timestep time="413760"><vehicle id="2401.TA.92-1-N-j24-1.25.R" x="9.80385368613152" y="46.4597928374937" until="120" name="Surlej, Punt" fareZone="" fareSymbol="" startFare="" speed="20"/></timestep>
    <timestep time="413880"><vehicle id="2401.TA.92-1-N-j24-1.25.R" x="9.79804158624245" y="46.4600836804969" until="240" name="Silvaplana, Rundella Curtins" fareZone="" fareSymbol="" startFare="" speed="20"/></timestep>
    <timestep time="414060"><vehicle id="2401.TA.92-1-N-j24-1.25.R" x="9.82370645391332" y="46.4788614234688" until="420" name="St. Moritz Bad, Campingplatz" fareZone="" fareSymbol="" startFare="" speed="20"/></timestep>
    <timestep time="414180"><vehicle id="2401.TA.92-1-N-j24-1.25.R" x="9.83210570182101" y="46.4835254660462" until="540" name="St. Moritz Bad, Signalbahn" fareZone="" fareSymbol="" startFare="" speed="20"/></timestep>
    <timestep time="414240"><vehicle id="2401.TA.92-1-N-j24-1.25.R" x="9.83409996175203" y="46.4838038113818" until="600" name="St. Moritz Bad, Via San Gian" fareZone="" fareSymbol="" startFare="" speed="20"/></timestep>
    <timestep time="414300"><vehicle id="2401.TA.92-1-N-j24-1.25.R" x="9.83716321687131" y="46.484948105022" until="660" name="St. Moritz Bad, Hallenbad" fareZone="" fareSymbol="" startFare="" speed="20"/></timestep>
    <timestep time="414420"><vehicle id="2401.TA.92-1-N-j24-1.25.R" x="9.84019053937921" y="46.4866737780177" until="780" name="St. Moritz Bad, Sonne" fareZone="" fareSymbol="" startFare="" speed="20"/></timestep>
    <timestep time="414480"><vehicle id="2401.TA.92-1-N-j24-1.25.R" x="9.83751355983216" y="46.4884859849912" until="840" name="St. Moritz Bad, Kath. Kirche" fareZone="" fareSymbol="" startFare="" speed="20"/></timestep>
    <timestep time="414540"><vehicle id="2401.TA.92-1-N-j24-1.25.R" x="9.83510607487039" y="46.4891106566786" until="900" name="St. Moritz Bad, Via Salet" fareZone="" fareSymbol="" startFare="" speed="20"/></timestep>
    <timestep time="414600"><vehicle id="2401.TA.92-1-N-j24-1.25.R" x="9.83483658028511" y="46.49159690259" until="960" name="St. Moritz Bad, Via Aruons" fareZone="" fareSymbol="" startFare="" speed="20"/></timestep>
    <timestep time="414780"><vehicle id="2401.TA.92-1-N-j24-1.25.R" x="9.83904069581538" y="46.4983623794113" until="1140" name="St. Moritz, Schulhausplatz" fareZone="" fareSymbol="" startFare="" speed="20"/></timestep>
    <timestep time="414840"><vehicle id="2401.TA.92-1-N-j24-1.25.R" x="9.83937307247055" y="46.4971874484028" until="1200" name="St. Moritz, Klinik Gut" fareZone="" fareSymbol="" startFare="" speed="20"/></timestep>
    <timestep time="414960"><vehicle id="2401.TA.92-1-N-j24-1.25.R" x="9.84528398704088" y="46.4976759754318" until="1380" name="St. Moritz, Bahnhof" fareZone="" fareSymbol="" startFare="" speed="20"/></timestep>
    <timestep time="415200"><vehicle id="2401.TA.92-1-N-j24-1.25.R" x="9.88268085232398" y="46.5084781033611" until="1620" name="Punt Muragl, Talstation" fareZone="" fareSymbol="" startFare="" speed="20"/></timestep>
    <timestep time="415560"><vehicle id="2401.TA.92-1-N-j24-1.25.R" x="9.89608371636491" y="46.4910341056312" until="1980" name="Pontresina, Bahnhof" fareZone="" fareSymbol="" startFare="" speed="20"/></timestep>
    <timestep time="415800"><vehicle id="2401.TA.92-1-N-j24-1.25.R" x="9.90658502203773" y="46.488263328002" until="2280" name="Pontresina, Post" fareZone="" fareSymbol="" startFare="" speed="20"/></timestep>