<?xml version="1.0" encoding="UTF-8"?>

<!-- generated by Eclipse SUMO sumo Version 1.12.0
<configuration xmlns:xsi="http://www.w3.org/2001/XMLSchema-instance" xsi:noNamespaceSchemaLocation="http://sumo.dlr.de/xsd/sumoConfiguration.xsd">

    <input>
        <net-file value="D:\Dokumente\sumo\maloja\simple.net.xml"/>
        <route-files value="D:\Dokumente\sumo\maloja\09_daytrips\persontrips_maloja_daytrips_resolved_offseason_taxi.rou.xml,D:\Dokumente\sumo\maloja\11_hotel\persontrips_maloja_hotel_resolved_offseason_taxi.rou.xml,D:\Dokumente\sumo\maloja\12_non_hotel\persontrips_maloja_non_hotel_resolved_offseason_taxi.rou.xml,D:\Dokumente\sumo\maloja\13_private\persontrips_maloja_private_resolved_offseason_taxi.rou.xml"/>
        <additional-files value="D:\Dokumente\sumo\maloja\03_bus\virtualstop.add.xml,D:\Dokumente\sumo\maloja\03_bus\03_November\gtfs_pt_stops.add.xml,drt_fleet.xml,drt_parking.add.xml,drt_parking_rerouter.add.xml"/>
    </input>

    <output>
        <tripinfo-output value="tripinfos_drt.xml"/>
        <tripinfo-output.write-unfinished value="true"/>
        <stop-output value="stopinfos_drt.xml"/>
        <statistic-output value="stats_drt.xml"/>
    </output>

    <time>
        <begin value="20520"/>
        <end value="77400"/>
    </time>

    <routing>
        <routing-algorithm value="CH"/>
        <persontrip.transfer.taxi-walk value="ptStops"/>
        <persontrip.transfer.walk-taxi value="ptStops"/>
    </routing>

    <report>
        <verbose value="true"/>
        <log value="simulation.log.txt"/>
        <error-log value="sumo_error.log"/>
        <duration-log.statistics value="true"/>
    </report>

    <taxi_device>
        <device.taxi.dispatch-algorithm value="traci"/>
    </taxi_device>

    <traci_server>
        <remote-port value="53979"/>
    </traci_server>

</configuration>
-->

<tripinfos xmlns:xsi="http://www.w3.org/2001/XMLSchema-instance" xsi:noNamespaceSchemaLocation="http://sumo.dlr.de/xsd/tripinfo_file.xsd">
    <personinfo id="d128" depart="28979.52" type="DEFAULT_PEDTYPE">
        <walk depart="28980.00" departPos="15.62" arrival="28984.00" arrivalPos="10.00" duration="4.00" routeLength="5.62" timeLoss="0.39" maxSpeed="1.56"/>
        <ride waitingTime="32.00" vehicle="taxi63" depart="29016.00" arrival="29201.00" arrivalPos="45.55" duration="185.00" routeLength="2626.38" timeLoss="25.73"/>
        <walk depart="29201.00" departPos="45.55" arrival="29581.00" arrivalPos="105.14" duration="380.00" routeLength="553.33" timeLoss="24.44" maxSpeed="1.56"/>
    </personinfo>
    <personinfo id="d92" depart="29122.82" type="DEFAULT_PEDTYPE">
        <walk depart="29123.00" departPos="3.38" arrival="29133.00" arrivalPos="15.00" duration="10.00" routeLength="11.62" timeLoss="1.62" maxSpeed="1.39"/>
        <ride waitingTime="36.00" vehicle="taxi27" depart="29169.00" arrival="29580.00" arrivalPos="13.24" duration="411.00" routeLength="6663.45" timeLoss="43.87"/>
        <walk depart="29580.00" departPos="13.24" arrival="29619.00" arrivalPos="0.67" duration="39.00" routeLength="47.62" timeLoss="4.65" maxSpeed="1.39"/>
    </personinfo>
    <personinfo id="tn85" depart="28889.60" type="DEFAULT_PEDTYPE">
        <walk depart="28890.00" departPos="26.86" arrival="29303.00" arrivalPos="553.86" duration="413.00" routeLength="551.68" timeLoss="45.34" maxSpeed="1.50"/>
        <ride waitingTime="155.00" vehicle="taxi65" depart="29458.00" arrival="29705.00" arrivalPos="25.00" duration="247.00" routeLength="3011.61" timeLoss="41.83"/>
        <walk depart="29705.00" departPos="25.00" arrival="29706.00" arrivalPos="25.50" duration="1.00" routeLength="0.50" timeLoss="0.67" maxSpeed="1.50"/>
    </personinfo>
    <personinfo id="d89" depart="29197.95" type="DEFAULT_PEDTYPE">
        <walk depart="29198.00" departPos="18.69" arrival="29201.00" arrivalPos="15.00" duration="3.00" routeLength="3.69" timeLoss="0.41" maxSpeed="1.42"/>
        <ride waitingTime="57.00" vehicle="taxi18" depart="29258.00" arrival="29687.00" arrivalPos="524.38" duration="429.00" routeLength="7115.34" timeLoss="51.93"/>
        <walk depart="29687.00" departPos="524.38" arrival="29714.00" arrivalPos="23.98" duration="27.00" routeLength="38.11" timeLoss="0.22" maxSpeed="1.42"/>
    </personinfo>
    <personinfo id="tn81" depart="29197.95" type="DEFAULT_PEDTYPE">
        <walk depart="29198.00" departPos="14.05" arrival="29379.00" arrivalPos="23.94" duration="181.00" routeLength="250.40" timeLoss="1.02" maxSpeed="1.39"/>
        <ride waitingTime="183.00" vehicle="taxi65" depart="29562.00" arrival="29705.00" arrivalPos="25.00" duration="143.00" routeLength="1699.73" timeLoss="22.19"/>
        <walk depart="29705.00" departPos="25.00" arrival="29819.00" arrivalPos="0.24" duration="114.00" routeLength="143.26" timeLoss="11.03" maxSpeed="1.39"/>
    </personinfo>
    <personinfo id="th83" depart="29197.95" type="DEFAULT_PEDTYPE">
        <walk depart="29198.00" departPos="101.56" arrival="29295.00" arrivalPos="23.94" duration="97.00" routeLength="162.89" timeLoss="-5.18" maxSpeed="1.59"/>
        <ride waitingTime="82.00" vehicle="taxi56" depart="29377.00" arrival="29866.00" arrivalPos="15.00" duration="489.00" routeLength="8602.54" timeLoss="50.45"/>
        <walk depart="29866.00" departPos="15.00" arrival="29878.00" arrivalPos="1.99" duration="12.00" routeLength="20.20" timeLoss="-0.67" maxSpeed="1.59"/>
    </personinfo>
    <personinfo id="tp83" depart="29197.95" type="DEFAULT_PEDTYPE">
        <walk depart="29198.00" departPos="120.67" arrival="29290.00" arrivalPos="23.94" duration="92.00" routeLength="143.77" timeLoss="-9.29" maxSpeed="1.42"/>
        <ride waitingTime="87.00" vehicle="taxi56" depart="29377.00" arrival="29866.00" arrivalPos="15.00" duration="489.00" routeLength="8602.54" timeLoss="50.45"/>
        <walk depart="29866.00" departPos="15.00" arrival="29880.00" arrivalPos="1.99" duration="14.00" routeLength="20.20" timeLoss="-0.23" maxSpeed="1.42"/>
    </personinfo>
    <personinfo id="th122" depart="28979.52" type="DEFAULT_PEDTYPE">
        <walk depart="28980.00" departPos="29.65" arrival="28991.00" arrivalPos="18.71" duration="11.00" routeLength="10.94" timeLoss="2.42" maxSpeed="1.28"/>
        <ride waitingTime="84.00" vehicle="taxi10" depart="29075.00" arrival="29448.00" arrivalPos="45.55" duration="373.00" routeLength="3978.00" timeLoss="44.03"/>
        <walk depart="29448.00" departPos="45.55" arrival="29912.00" arrivalPos="105.14" duration="464.00" routeLength="553.33" timeLoss="30.05" maxSpeed="1.28"/>
    </personinfo>
    <personinfo id="d56" depart="28921.78" type="DEFAULT_PEDTYPE">
        <walk depart="28922.00" departPos="6.52" arrival="28930.00" arrivalPos="15.00" duration="8.00" routeLength="8.48" timeLoss="1.35" maxSpeed="1.28"/>
        <ride waitingTime="60.00" vehicle="taxi36" depart="28990.00" arrival="29595.00" arrivalPos="15.00" duration="605.00" routeLength="10570.68" timeLoss="72.91"/>
        <walk depart="29595.00" departPos="15.00" arrival="29937.00" arrivalPos="62.06" duration="342.00" routeLength="452.97" timeLoss="-13.05" maxSpeed="1.28"/>
    </personinfo>
    <personinfo id="tp122" depart="28979.52" type="DEFAULT_PEDTYPE">
        <walk depart="28980.00" departPos="29.18" arrival="28990.00" arrivalPos="18.71" duration="10.00" routeLength="10.47" timeLoss="1.10" maxSpeed="1.18"/>
        <ride waitingTime="54.00" vehicle="taxi10" depart="29044.00" arrival="29448.00" arrivalPos="45.55" duration="404.00" routeLength="4090.06" timeLoss="54.13"/>
        <walk depart="29448.00" departPos="45.55" arrival="29951.00" arrivalPos="105.14" duration="503.00" routeLength="553.33" timeLoss="32.55" maxSpeed="1.18"/>
    </personinfo>
    <personinfo id="d136" depart="29903.27" type="DEFAULT_PEDTYPE">
        <walk depart="29904.00" departPos="11.52" arrival="29907.00" arrivalPos="15.00" duration="3.00" routeLength="3.48" timeLoss="0.55" maxSpeed="1.42"/>
        <ride waitingTime="42.00" vehicle="taxi45" depart="29949.00" arrival="30188.00" arrivalPos="25.48" duration="239.00" routeLength="3430.92" timeLoss="29.34"/>
        <walk depart="30188.00" departPos="25.48" arrival="30416.00" arrivalPos="1.56" duration="228.00" routeLength="307.54" timeLoss="11.29" maxSpeed="1.42"/>
    </personinfo>
    <personinfo id="th32" depart="28958.69" type="DEFAULT_PEDTYPE">
        <walk depart="28959.00" departPos="53.62" arrival="28991.00" arrivalPos="15.53" duration="32.00" routeLength="38.09" timeLoss="4.16" maxSpeed="1.37"/>
        <ride waitingTime="287.00" vehicle="taxi33" depart="29278.00" arrival="30445.00" arrivalPos="6.18" duration="1167.00" routeLength="24310.70" timeLoss="70.14"/>
        <walk depart="30445.00" departPos="6.18" arrival="30465.00" arrivalPos="24.95" duration="20.00" routeLength="41.80" timeLoss="-10.56" maxSpeed="1.37"/>
    </personinfo>
    <personinfo id="tp32" depart="28958.69" type="DEFAULT_PEDTYPE">
        <walk depart="28959.00" departPos="49.98" arrival="28988.00" arrivalPos="15.53" duration="29.00" routeLength="34.45" timeLoss="3.74" maxSpeed="1.36"/>
        <ride waitingTime="223.00" vehicle="taxi33" depart="29211.00" arrival="30445.00" arrivalPos="6.18" duration="1234.00" routeLength="24790.35" timeLoss="82.46"/>
        <walk depart="30445.00" departPos="6.18" arrival="30466.00" arrivalPos="24.95" duration="21.00" routeLength="41.80" timeLoss="-9.65" maxSpeed="1.36"/>
    </personinfo>
    <personinfo id="tn32" depart="28958.69" type="DEFAULT_PEDTYPE">
        <walk depart="28959.00" departPos="12.01" arrival="28962.00" arrivalPos="15.53" duration="3.00" routeLength="3.52" timeLoss="0.52" maxSpeed="1.42"/>
        <ride waitingTime="183.00" vehicle="taxi33" depart="29145.00" arrival="30445.00" arrivalPos="6.18" duration="1300.00" routeLength="25270.00" timeLoss="94.19"/>
        <walk depart="30445.00" departPos="6.18" arrival="30470.00" arrivalPos="19.95" duration="25.00" routeLength="46.80" timeLoss="-7.97" maxSpeed="1.42"/>
    </personinfo>
    <personinfo id="d145" depart="30205.95" type="DEFAULT_PEDTYPE">
        <walk depart="30206.00" departPos="4.46" arrival="30217.00" arrivalPos="15.00" duration="11.00" routeLength="10.54" timeLoss="2.01" maxSpeed="1.17"/>
        <ride waitingTime="35.00" vehicle="taxi54" depart="30252.00" arrival="30387.00" arrivalPos="53.58" duration="135.00" routeLength="1640.39" timeLoss="21.25"/>
        <walk depart="30387.00" departPos="53.58" arrival="30492.00" arrivalPos="18.64" duration="105.00" routeLength="43.59" timeLoss="67.85" maxSpeed="1.17"/>
    </personinfo>
    <personinfo id="th138" depart="30205.95" type="DEFAULT_PEDTYPE">
        <walk depart="30206.00" departPos="0.29" arrival="30210.00" arrivalPos="5.29" duration="4.00" routeLength="25.50" timeLoss="-11.70" maxSpeed="1.62"/>
        <ride waitingTime="103.00" vehicle="taxi10" depart="30313.00" arrival="30578.00" arrivalPos="20.00" duration="265.00" routeLength="4209.96" timeLoss="44.59"/>
        <walk depart="30578.00" departPos="20.00" arrival="30579.00" arrivalPos="20.38" duration="1.00" routeLength="0.38" timeLoss="0.77" maxSpeed="1.62"/>
    </personinfo>
    <personinfo id="tp138" depart="30205.95" type="DEFAULT_PEDTYPE">
        <walk depart="30206.00" departPos="0.64" arrival="30212.00" arrivalPos="5.29" duration="6.00" routeLength="25.84" timeLoss="-18.60" maxSpeed="1.05"/>
        <ride waitingTime="101.00" vehicle="taxi10" depart="30313.00" arrival="30578.00" arrivalPos="20.00" duration="265.00" routeLength="4209.96" timeLoss="44.59"/>
        <walk depart="30578.00" departPos="20.00" arrival="30579.00" arrivalPos="20.38" duration="1.00" routeLength="0.38" timeLoss="0.64" maxSpeed="1.05"/>
    </personinfo>
    <personinfo id="th129" depart="29903.27" type="DEFAULT_PEDTYPE">
        <walk depart="29904.00" departPos="3.47" arrival="30218.00" arrivalPos="184.55" duration="314.00" routeLength="439.91" timeLoss="32.04" maxSpeed="1.56"/>
        <ride waitingTime="188.00" vehicle="taxi10" depart="30406.00" arrival="30661.00" arrivalPos="25.00" duration="255.00" routeLength="2745.09" timeLoss="36.44"/>
        <walk depart="30661.00" departPos="25.00" arrival="30678.00" arrivalPos="1.24" duration="17.00" routeLength="23.76" timeLoss="1.77" maxSpeed="1.56"/>
    </personinfo>
    <personinfo id="d66" depart="30056.12" type="DEFAULT_PEDTYPE">
        <walk depart="30057.00" departPos="20.37" arrival="30061.00" arrivalPos="15.00" duration="4.00" routeLength="5.37" timeLoss="0.38" maxSpeed="1.48"/>
        <ride waitingTime="38.00" vehicle="taxi9" depart="30099.00" arrival="30763.00" arrivalPos="34.99" duration="664.00" routeLength="11146.75" timeLoss="64.42"/>
        <walk depart="30763.00" departPos="34.99" arrival="30801.00" arrivalPos="14.16" duration="38.00" routeLength="52.37" timeLoss="2.66" maxSpeed="1.48"/>
    </personinfo>
    <personinfo id="d115" depart="30649.67" type="DEFAULT_PEDTYPE">
        <walk depart="30650.00" departPos="16.39" arrival="30651.00" arrivalPos="15.00" duration="1.00" routeLength="1.39" timeLoss="0.16" maxSpeed="1.65"/>
        <ride waitingTime="48.00" vehicle="taxi0" depart="30699.00" arrival="30819.00" arrivalPos="17.26" duration="120.00" routeLength="1533.40" timeLoss="21.19"/>
        <walk depart="30819.00" departPos="17.26" arrival="30867.00" arrivalPos="27.61" duration="48.00" routeLength="78.11" timeLoss="0.63" maxSpeed="1.65"/>
    </personinfo>
    <personinfo id="tp129" depart="29903.27" type="DEFAULT_PEDTYPE">
        <walk depart="29904.00" departPos="36.43" arrival="30409.00" arrivalPos="184.55" duration="505.00" routeLength="472.87" timeLoss="52.51" maxSpeed="1.05"/>
        <ride waitingTime="313.00" vehicle="taxi44" depart="30722.00" arrival="30905.00" arrivalPos="25.00" duration="183.00" routeLength="2642.55" timeLoss="30.41"/>
        <walk depart="30905.00" departPos="25.00" arrival="30931.00" arrivalPos="1.24" duration="26.00" routeLength="23.76" timeLoss="3.26" maxSpeed="1.05"/>
    </personinfo>
    <personinfo id="tp26" depart="29784.39" type="DEFAULT_PEDTYPE">
        <walk depart="29785.00" departPos="134.49" arrival="30089.00" arrivalPos="2.55" duration="304.00" routeLength="418.73" timeLoss="25.95" maxSpeed="1.51"/>
        <ride waitingTime="40.00" vehicle="taxi53" depart="30129.00" arrival="30397.00" arrivalPos="18.17" duration="268.00" routeLength="4471.16" timeLoss="36.44"/>
        <walk depart="30397.00" departPos="18.17" arrival="31052.00" arrivalPos="36.60" duration="655.00" routeLength="938.96" timeLoss="31.51" maxSpeed="1.51"/>
    </personinfo>
    <personinfo id="tn26" depart="29784.39" type="DEFAULT_PEDTYPE">
        <walk depart="29785.00" departPos="144.50" arrival="30111.00" arrivalPos="2.55" duration="326.00" routeLength="428.74" timeLoss="27.69" maxSpeed="1.44"/>
        <ride waitingTime="46.00" vehicle="taxi44" depart="30157.00" arrival="30430.00" arrivalPos="18.17" duration="273.00" routeLength="4471.14" timeLoss="36.39"/>
        <walk depart="30430.00" departPos="18.17" arrival="31116.00" arrivalPos="36.60" duration="686.00" routeLength="938.96" timeLoss="32.69" maxSpeed="1.44"/>
    </personinfo>
    <personinfo id="th26" depart="29784.39" type="DEFAULT_PEDTYPE">
        <walk depart="29785.00" departPos="147.82" arrival="30134.00" arrivalPos="2.55" duration="349.00" routeLength="432.07" timeLoss="28.61" maxSpeed="1.35"/>
        <ride waitingTime="55.00" vehicle="taxi71" depart="30189.00" arrival="30471.00" arrivalPos="18.17" duration="282.00" routeLength="4471.18" timeLoss="36.43"/>
        <walk depart="30471.00" departPos="18.17" arrival="31201.00" arrivalPos="36.60" duration="730.00" routeLength="938.96" timeLoss="33.73" maxSpeed="1.35"/>
    </personinfo>
    <personinfo id="tn68" depart="30891.43" type="DEFAULT_PEDTYPE">
        <walk depart="30892.00" departPos="0.05" arrival="30897.00" arrivalPos="6.12" duration="5.00" routeLength="8.85" timeLoss="-1.07" maxSpeed="1.46"/>
        <ride waitingTime="137.00" vehicle="taxi45" depart="31034.00" arrival="31217.00" arrivalPos="109.72" duration="183.00" routeLength="2670.24" timeLoss="49.63"/>
        <walk depart="31217.00" departPos="109.72" arrival="31260.00" arrivalPos="0.15" duration="43.00" routeLength="56.08" timeLoss="4.54" maxSpeed="1.46"/>
    </personinfo>
    <personinfo id="tn48" depart="30772.95" type="DEFAULT_PEDTYPE">
        <walk depart="30773.00" departPos="12.99" arrival="30846.00" arrivalPos="10.67" duration="73.00" routeLength="68.06" timeLoss="10.00" maxSpeed="1.08"/>
        <ride waitingTime="37.00" vehicle="taxi53" depart="30883.00" arrival="31274.00" arrivalPos="20.00" duration="391.00" routeLength="6731.42" timeLoss="46.55"/>
        <walk depart="31274.00" departPos="20.00" arrival="31294.00" arrivalPos="1.20" duration="20.00" routeLength="18.80" timeLoss="2.60" maxSpeed="1.08"/>
    </personinfo>
    <personinfo id="th109" depart="30649.67" type="DEFAULT_PEDTYPE">
        <walk depart="30650.00" departPos="4.34" arrival="30911.00" arrivalPos="5.29" duration="261.00" routeLength="342.33" timeLoss="-3.82" maxSpeed="1.29"/>
        <ride waitingTime="83.00" vehicle="taxi63" depart="30994.00" arrival="31256.00" arrivalPos="15.00" duration="262.00" routeLength="3811.60" timeLoss="48.15"/>
        <walk depart="31256.00" departPos="15.00" arrival="31309.00" arrivalPos="14.92" duration="53.00" routeLength="63.55" timeLoss="3.84" maxSpeed="1.29"/>
    </personinfo>
    <personinfo id="tp109" depart="30649.67" type="DEFAULT_PEDTYPE">
        <walk depart="30650.00" departPos="5.08" arrival="30853.00" arrivalPos="5.29" duration="203.00" routeLength="341.58" timeLoss="1.51" maxSpeed="1.70"/>
        <ride waitingTime="126.00" vehicle="taxi63" depart="30979.00" arrival="31256.00" arrivalPos="15.00" duration="277.00" routeLength="3845.51" timeLoss="57.16"/>
        <walk depart="31256.00" departPos="15.00" arrival="31309.00" arrivalPos="14.92" duration="53.00" routeLength="63.55" timeLoss="15.51" maxSpeed="1.70"/>
    </personinfo>
    <personinfo id="d29" depart="29784.39" type="DEFAULT_PEDTYPE">
        <walk depart="29785.00" departPos="4.06" arrival="29796.00" arrivalPos="15.00" duration="11.00" routeLength="10.94" timeLoss="1.34" maxSpeed="1.13"/>
        <ride waitingTime="35.00" vehicle="taxi65" depart="29831.00" arrival="31296.00" arrivalPos="182.42" duration="1465.00" routeLength="26295.04" timeLoss="98.46"/>
        <walk depart="31296.00" departPos="182.42" arrival="31331.00" arrivalPos="22.78" duration="35.00" routeLength="33.98" timeLoss="4.98" maxSpeed="1.13"/>
    </personinfo>
    <personinfo id="tn64" depart="29217.29" type="DEFAULT_PEDTYPE">
        <walk depart="29218.00" departPos="2.70" arrival="29842.00" arrivalPos="18.71" duration="624.00" routeLength="709.11" timeLoss="23.79" maxSpeed="1.18"/>
        <ride waitingTime="44.00" vehicle="taxi55" depart="29886.00" arrival="30723.00" arrivalPos="5.00" duration="837.00" routeLength="12631.04" timeLoss="92.55"/>
        <walk depart="30723.00" departPos="5.00" arrival="31352.00" arrivalPos="108.49" duration="629.00" routeLength="703.52" timeLoss="33.51" maxSpeed="1.18"/>
    </personinfo>
    <personinfo id="d57" depart="30960.73" type="DEFAULT_PEDTYPE">
        <walk depart="30961.00" departPos="8.70" arrival="30968.00" arrivalPos="15.00" duration="7.00" routeLength="6.30" timeLoss="1.21" maxSpeed="1.09"/>
        <ride waitingTime="32.00" vehicle="taxi10" depart="31000.00" arrival="31571.00" arrivalPos="15.00" duration="571.00" routeLength="10570.68" timeLoss="68.79"/>
        <walk depart="31571.00" departPos="15.00" arrival="31578.00" arrivalPos="21.47" duration="7.00" routeLength="6.47" timeLoss="1.05" maxSpeed="1.09"/>
    </personinfo>
    <personinfo id="tp156" depart="31417.42" type="DEFAULT_PEDTYPE">
        <walk depart="31418.00" departPos="35.05" arrival="31451.00" arrivalPos="7.50" duration="33.00" routeLength="53.43" timeLoss="-3.48" maxSpeed="1.46"/>
        <ride waitingTime="74.00" vehicle="taxi54" depart="31525.00" arrival="31681.00" arrivalPos="25.00" duration="156.00" routeLength="1497.64" timeLoss="26.80"/>
        <walk depart="31681.00" departPos="25.00" arrival="31691.00" arrivalPos="13.22" duration="10.00" routeLength="11.78" timeLoss="1.96" maxSpeed="1.46"/>
    </personinfo>
    <personinfo id="tp65" depart="29217.29" type="DEFAULT_PEDTYPE">
        <walk depart="29218.00" departPos="2.03" arrival="29714.00" arrivalPos="18.71" duration="496.00" routeLength="709.78" timeLoss="18.99" maxSpeed="1.49"/>
        <ride waitingTime="52.00" vehicle="taxi64" depart="29766.00" arrival="31008.00" arrivalPos="98.33" duration="1242.00" routeLength="19750.65" timeLoss="98.67"/>
        <walk depart="31008.00" departPos="98.33" arrival="31697.00" arrivalPos="16.12" duration="689.00" routeLength="934.66" timeLoss="60.85" maxSpeed="1.49"/>
    </personinfo>
    <personinfo id="th65" depart="29217.29" type="DEFAULT_PEDTYPE">
        <walk depart="29218.00" departPos="0.09" arrival="29784.00" arrivalPos="18.71" duration="566.00" routeLength="711.72" timeLoss="77.61" maxSpeed="1.46"/>
        <ride waitingTime="41.00" vehicle="taxi28" depart="29825.00" arrival="31017.00" arrivalPos="98.33" duration="1192.00" routeLength="19750.65" timeLoss="154.58"/>
        <walk depart="31017.00" departPos="98.33" arrival="31721.00" arrivalPos="16.12" duration="704.00" routeLength="934.66" timeLoss="62.62" maxSpeed="1.46"/>
    </personinfo>
    <personinfo id="th156" depart="31417.42" type="DEFAULT_PEDTYPE">
        <walk depart="31418.00" departPos="11.58" arrival="31434.00" arrivalPos="7.50" duration="16.00" routeLength="29.96" timeLoss="-6.01" maxSpeed="1.36"/>
        <ride waitingTime="276.00" vehicle="taxi0" depart="31710.00" arrival="31860.00" arrivalPos="25.00" duration="150.00" routeLength="1496.84" timeLoss="24.66"/>
        <walk depart="31860.00" departPos="25.00" arrival="31870.00" arrivalPos="13.22" duration="10.00" routeLength="11.78" timeLoss="1.35" maxSpeed="1.36"/>
    </personinfo>
    <personinfo id="th153" depart="30962.87" type="DEFAULT_PEDTYPE">
        <walk depart="30963.00" departPos="120.12" arrival="31572.00" arrivalPos="184.55" duration="609.00" routeLength="761.86" timeLoss="84.38" maxSpeed="1.45"/>
        <ride waitingTime="218.00" vehicle="taxi38" depart="31790.00" arrival="32018.00" arrivalPos="25.00" duration="228.00" routeLength="3217.66" timeLoss="51.25"/>
        <walk depart="32018.00" departPos="25.00" arrival="32037.00" arrivalPos="0.17" duration="19.00" routeLength="24.83" timeLoss="1.90" maxSpeed="1.45"/>
    </personinfo>
    <personinfo id="tp153" depart="30962.87" type="DEFAULT_PEDTYPE">
        <walk depart="30963.00" departPos="105.13" arrival="31707.00" arrivalPos="184.55" duration="744.00" routeLength="746.88" timeLoss="50.25" maxSpeed="1.08"/>
        <ride waitingTime="134.00" vehicle="taxi38" depart="31841.00" arrival="32018.00" arrivalPos="25.00" duration="177.00" routeLength="2643.35" timeLoss="27.88"/>
        <walk depart="32018.00" departPos="25.00" arrival="32044.00" arrivalPos="0.17" duration="26.00" routeLength="24.83" timeLoss="2.94" maxSpeed="1.08"/>
    </personinfo>
    <personinfo id="d141" depart="31854.41" type="DEFAULT_PEDTYPE">
        <walk depart="31855.00" departPos="4.33" arrival="31860.00" arrivalPos="10.00" duration="5.00" routeLength="5.67" timeLoss="1.13" maxSpeed="1.47"/>
        <ride waitingTime="37.00" vehicle="taxi54" depart="31897.00" arrival="32047.00" arrivalPos="33.59" duration="150.00" routeLength="1872.25" timeLoss="23.79"/>
        <walk depart="32047.00" departPos="33.59" arrival="32103.00" arrivalPos="36.77" duration="56.00" routeLength="76.07" timeLoss="4.11" maxSpeed="1.47"/>
    </personinfo>
    <personinfo id="th63" depart="30915.84" type="DEFAULT_PEDTYPE">
        <walk depart="30916.00" departPos="19.05" arrival="31272.00" arrivalPos="87.83" duration="356.00" routeLength="525.83" timeLoss="27.12" maxSpeed="1.60"/>
        <ride waitingTime="173.00" vehicle="taxi53" depart="31445.00" arrival="32259.00" arrivalPos="15.00" duration="814.00" routeLength="16291.90" timeLoss="69.50"/>
        <walk depart="32259.00" departPos="15.00" arrival="32342.00" arrivalPos="7.10" duration="83.00" routeLength="119.44" timeLoss="8.30" maxSpeed="1.60"/>
    </personinfo>
    <personinfo id="th89" depart="31346.34" type="DEFAULT_PEDTYPE">
        <walk depart="31347.00" departPos="49.71" arrival="31447.00" arrivalPos="9.76" duration="100.00" routeLength="129.13" timeLoss="1.84" maxSpeed="1.32"/>
        <ride waitingTime="329.00" vehicle="taxi27" depart="31776.00" arrival="32348.00" arrivalPos="34.99" duration="572.00" routeLength="9725.62" timeLoss="73.81"/>
        <walk depart="32348.00" departPos="34.99" arrival="32389.00" arrivalPos="12.82" duration="41.00" routeLength="51.03" timeLoss="2.21" maxSpeed="1.32"/>
    </personinfo>
    <personinfo id="tp89" depart="31346.34" type="DEFAULT_PEDTYPE">
        <walk depart="31347.00" departPos="40.51" arrival="31448.00" arrivalPos="9.76" duration="101.00" routeLength="138.33" timeLoss="6.57" maxSpeed="1.46"/>
        <ride waitingTime="357.00" vehicle="taxi27" depart="31805.00" arrival="32348.00" arrivalPos="34.99" duration="543.00" routeLength="9566.43" timeLoss="60.03"/>
        <walk depart="32348.00" departPos="34.99" arrival="32389.00" arrivalPos="12.82" duration="41.00" routeLength="51.03" timeLoss="6.17" maxSpeed="1.46"/>
    </personinfo>
    <personinfo id="d35" depart="31079.74" type="DEFAULT_PEDTYPE">
        <walk depart="31080.00" departPos="2.00" arrival="31092.00" arrivalPos="15.00" duration="12.00" routeLength="13.00" timeLoss="1.75" maxSpeed="1.27"/>
        <ride waitingTime="235.00" vehicle="taxi53" depart="31327.00" arrival="32259.00" arrivalPos="15.00" duration="932.00" routeLength="17522.80" timeLoss="92.75"/>
        <walk depart="32259.00" departPos="15.00" arrival="32410.00" arrivalPos="1.00" duration="151.00" routeLength="212.89" timeLoss="-16.85" maxSpeed="1.27"/>
    </personinfo>
    <personinfo id="tp146" depart="32072.04" type="DEFAULT_PEDTYPE">
        <walk depart="32073.00" departPos="21.64" arrival="32087.00" arrivalPos="7.50" duration="14.00" routeLength="14.14" timeLoss="1.79" maxSpeed="1.16"/>
        <ride waitingTime="265.00" vehicle="taxi38" depart="32352.00" arrival="32552.00" arrivalPos="25.00" duration="200.00" routeLength="2294.51" timeLoss="27.44"/>
        <walk depart="32552.00" departPos="25.00" arrival="32564.00" arrivalPos="12.94" duration="12.00" routeLength="12.06" timeLoss="1.59" maxSpeed="1.16"/>
    </personinfo>
    <personinfo id="tn50" depart="30960.73" type="DEFAULT_PEDTYPE">
        <walk depart="30961.00" departPos="4.06" arrival="30970.00" arrivalPos="15.00" duration="9.00" routeLength="10.94" timeLoss="1.34" maxSpeed="1.43"/>
        <ride waitingTime="65.00" vehicle="taxi44" depart="31035.00" arrival="32604.00" arrivalPos="6.08" duration="1569.00" routeLength="30357.95" timeLoss="103.67"/>
        <walk depart="32604.00" departPos="6.08" arrival="32630.00" arrivalPos="3.92" duration="26.00" routeLength="32.16" timeLoss="3.48" maxSpeed="1.43"/>
    </personinfo>
    <personinfo id="th146" depart="32072.04" type="DEFAULT_PEDTYPE">
        <walk depart="32073.00" departPos="195.27" arrival="32216.00" arrivalPos="7.50" duration="143.00" routeLength="187.77" timeLoss="14.56" maxSpeed="1.46"/>
        <ride waitingTime="202.00" vehicle="taxi20" depart="32418.00" arrival="32627.00" arrivalPos="25.00" duration="209.00" routeLength="2295.31" timeLoss="29.11"/>
        <walk depart="32627.00" departPos="25.00" arrival="32636.00" arrivalPos="12.94" duration="9.00" routeLength="12.06" timeLoss="0.75" maxSpeed="1.46"/>
    </personinfo>
    <personinfo id="d135" depart="32308.99" type="DEFAULT_PEDTYPE">
        <walk depart="32309.00" departPos="11.97" arrival="32312.00" arrivalPos="15.00" duration="3.00" routeLength="3.03" timeLoss="0.59" maxSpeed="1.26"/>
        <ride waitingTime="164.00" vehicle="taxi11" depart="32476.00" arrival="32599.00" arrivalPos="95.33" duration="123.00" routeLength="1232.10" timeLoss="26.65"/>
        <walk depart="32599.00" departPos="95.33" arrival="32774.00" arrivalPos="46.41" duration="175.00" routeLength="252.67" timeLoss="-25.79" maxSpeed="1.26"/>
    </personinfo>
    <personinfo id="d112" depart="32394.65" type="DEFAULT_PEDTYPE">
        <walk depart="32395.00" departPos="15.97" arrival="32400.00" arrivalPos="10.00" duration="5.00" routeLength="5.97" timeLoss="0.58" maxSpeed="1.35"/>
        <ride waitingTime="93.00" vehicle="taxi2" depart="32493.00" arrival="32669.00" arrivalPos="44.82" duration="176.00" routeLength="2072.04" timeLoss="34.29"/>
        <walk depart="32669.00" departPos="44.82" arrival="32791.00" arrivalPos="2.94" duration="122.00" routeLength="153.54" timeLoss="8.22" maxSpeed="1.35"/>
    </personinfo>
    <personinfo id="d152" depart="32561.15" type="DEFAULT_PEDTYPE">
        <walk depart="32562.00" departPos="6.12" arrival="32570.00" arrivalPos="15.00" duration="8.00" routeLength="8.88" timeLoss="1.42" maxSpeed="1.35"/>
        <ride waitingTime="290.00" vehicle="NULL" depart="-1" arrival="32860.00" arrivalPos="25.48" duration="32860.00" routeLength="-1.00" timeLoss="-0.00"/>
        <stop duration="0.00" arrival="32860.00" arrivalPos="23.80" actType="last stage removed"/>
    </personinfo>
    <personinfo id="tp106" depart="32394.65" type="DEFAULT_PEDTYPE">
        <walk depart="32395.00" departPos="10.44" arrival="32629.00" arrivalPos="17.78" duration="234.00" routeLength="298.77" timeLoss="15.20" maxSpeed="1.37"/>
        <ride waitingTime="231.00" vehicle="NULL" depart="-1" arrival="32860.00" arrivalPos="25.83" duration="32860.00" routeLength="-1.00" timeLoss="-0.00"/>
        <stop duration="0.00" arrival="32860.00" arrivalPos="24.88" actType="last stage removed"/>
    </personinfo>
    <personinfo id="tp63" depart="30915.84" type="DEFAULT_PEDTYPE">