<?xml version="1.0" encoding="UTF-8"?>

<!-- generated by Eclipse SUMO sumo Version 1.12.0
<configuration xmlns:xsi="http://www.w3.org/2001/XMLSchema-instance" xsi:noNamespaceSchemaLocation="http://sumo.dlr.de/xsd/sumoConfiguration.xsd">

    <input>
        <net-file value="D:\Dokumente\sumo\maloja\simple.net.xml"/>
        <route-files value="D:\Dokumente\sumo\maloja\09_daytrips\persontrips_maloja_daytrips_resolved_offseason_taxi.rou.xml,D:\Dokumente\sumo\maloja\11_hotel\persontrips_maloja_hotel_resolved_offseason_taxi.rou.xml,D:\Dokumente\sumo\maloja\12_non_hotel\persontrips_maloja_non_hotel_resolved_offseason_taxi.rou.xml,D:\Dokumente\sumo\maloja\13_private\persontrips_maloja_private_resolved_offseason_taxi.rou.xml"/>
        <additional-files value="D:\Dokumente\sumo\maloja\03_bus\virtualstop.add.xml,D:\Dokumente\sumo\maloja\03_bus\03_November\gtfs_pt_stops.add.xml,drt_fleet.xml,drt_parking.add.xml,drt_parking_rerouter.add.xml"/>
    </input>

    <output>
        <tripinfo-output value="tripinfos_drt.xml"/>
        <tripinfo-output.write-unfinished value="true"/>
        <stop-output value="stopinfos_drt.xml"/>
        <statistic-output value="stats_drt.xml"/>
    </output>

    <time>
        <begin value="20520"/>
        <end value="77400"/>
    </time>

    <routing>
        <routing-algorithm value="CH"/>
        <persontrip.transfer.taxi-walk value="ptStops"/>
        <persontrip.transfer.walk-taxi value="ptStops"/>
    </routing>

    <report>
        <verbose value="true"/>
        <log value="simulation.log.txt"/>
        <error-log value="sumo_error.log"/>
        <duration-log.statistics value="true"/>
    </report>

    <taxi_device>
        <device.taxi.dispatch-algorithm value="traci"/>
    </taxi_device>

    <traci_server>
        <remote-port value="52186"/>
    </traci_server>

</configuration>
-->

<tripinfos xmlns:xsi="http://www.w3.org/2001/XMLSchema-instance" xsi:noNamespaceSchemaLocation="http://sumo.dlr.de/xsd/tripinfo_file.xsd">
    <personinfo id="d128" depart="28979.52" type="DEFAULT_PEDTYPE">
        <walk depart="28980.00" departPos="15.62" arrival="28984.00" arrivalPos="10.00" duration="4.00" routeLength="5.62" timeLoss="0.39" maxSpeed="1.56"/>
        <ride waitingTime="32.00" vehicle="taxi18" depart="29016.00" arrival="29206.00" arrivalPos="45.55" duration="190.00" routeLength="2626.38" timeLoss="25.91"/>
        <walk depart="29206.00" departPos="45.55" arrival="29587.00" arrivalPos="105.14" duration="381.00" routeLength="553.33" timeLoss="25.44" maxSpeed="1.56"/>
    </personinfo>
    <personinfo id="d92" depart="29122.82" type="DEFAULT_PEDTYPE">
        <walk depart="29123.00" departPos="3.38" arrival="29133.00" arrivalPos="15.00" duration="10.00" routeLength="11.62" timeLoss="1.62" maxSpeed="1.39"/>
        <ride waitingTime="36.00" vehicle="taxi54" depart="29169.00" arrival="29570.00" arrivalPos="13.24" duration="401.00" routeLength="6663.45" timeLoss="42.98"/>
        <walk depart="29570.00" departPos="13.24" arrival="29609.00" arrivalPos="0.67" duration="39.00" routeLength="47.62" timeLoss="4.65" maxSpeed="1.39"/>
    </personinfo>
    <personinfo id="d89" depart="29197.95" type="DEFAULT_PEDTYPE">
        <walk depart="29198.00" departPos="18.69" arrival="29201.00" arrivalPos="15.00" duration="3.00" routeLength="3.69" timeLoss="0.41" maxSpeed="1.42"/>
        <ride waitingTime="56.00" vehicle="taxi45" depart="29257.00" arrival="29652.00" arrivalPos="524.38" duration="395.00" routeLength="7115.34" timeLoss="46.06"/>
        <walk depart="29652.00" departPos="524.38" arrival="29679.00" arrivalPos="23.98" duration="27.00" routeLength="38.11" timeLoss="0.22" maxSpeed="1.42"/>
    </personinfo>
    <personinfo id="th122" depart="28979.52" type="DEFAULT_PEDTYPE">
        <walk depart="28980.00" departPos="29.65" arrival="28991.00" arrivalPos="18.71" duration="11.00" routeLength="10.94" timeLoss="2.42" maxSpeed="1.28"/>
        <ride waitingTime="84.00" vehicle="taxi10" depart="29075.00" arrival="29442.00" arrivalPos="45.55" duration="367.00" routeLength="3978.00" timeLoss="38.14"/>
        <walk depart="29442.00" departPos="45.55" arrival="29905.00" arrivalPos="105.14" duration="463.00" routeLength="553.33" timeLoss="29.05" maxSpeed="1.28"/>
    </personinfo>
    <personinfo id="th83" depart="29197.95" type="DEFAULT_PEDTYPE">
        <walk depart="29198.00" departPos="101.56" arrival="29294.00" arrivalPos="23.94" duration="96.00" routeLength="162.89" timeLoss="-6.18" maxSpeed="1.59"/>
        <ride waitingTime="133.00" vehicle="taxi56" depart="29427.00" arrival="29916.00" arrivalPos="15.00" duration="489.00" routeLength="8604.64" timeLoss="50.97"/>
        <walk depart="29916.00" departPos="15.00" arrival="29928.00" arrivalPos="1.99" duration="12.00" routeLength="20.20" timeLoss="-0.67" maxSpeed="1.59"/>
    </personinfo>
    <personinfo id="tp83" depart="29197.95" type="DEFAULT_PEDTYPE">
        <walk depart="29198.00" departPos="120.67" arrival="29291.00" arrivalPos="23.94" duration="93.00" routeLength="143.77" timeLoss="-8.29" maxSpeed="1.42"/>
        <ride waitingTime="90.00" vehicle="taxi56" depart="29381.00" arrival="29916.00" arrivalPos="15.00" duration="535.00" routeLength="8976.22" timeLoss="65.99"/>
        <walk depart="29916.00" departPos="15.00" arrival="29930.00" arrivalPos="1.99" duration="14.00" routeLength="20.20" timeLoss="-0.23" maxSpeed="1.42"/>
    </personinfo>
    <personinfo id="d56" depart="28921.78" type="DEFAULT_PEDTYPE">
        <walk depart="28922.00" departPos="6.52" arrival="28930.00" arrivalPos="15.00" duration="8.00" routeLength="8.48" timeLoss="1.35" maxSpeed="1.28"/>
        <ride waitingTime="60.00" vehicle="taxi63" depart="28990.00" arrival="29592.00" arrivalPos="15.00" duration="602.00" routeLength="10570.68" timeLoss="73.22"/>
        <walk depart="29592.00" departPos="15.00" arrival="29935.00" arrivalPos="62.06" duration="343.00" routeLength="452.97" timeLoss="-12.05" maxSpeed="1.28"/>
    </personinfo>
    <personinfo id="tp122" depart="28979.52" type="DEFAULT_PEDTYPE">
        <walk depart="28980.00" departPos="29.18" arrival="28990.00" arrivalPos="18.71" duration="10.00" routeLength="10.47" timeLoss="1.10" maxSpeed="1.18"/>
        <ride waitingTime="54.00" vehicle="taxi10" depart="29044.00" arrival="29442.00" arrivalPos="45.55" duration="398.00" routeLength="4090.06" timeLoss="48.24"/>
        <walk depart="29442.00" departPos="45.55" arrival="29948.00" arrivalPos="105.14" duration="506.00" routeLength="553.33" timeLoss="35.55" maxSpeed="1.18"/>
    </personinfo>
    <personinfo id="tn81" depart="29197.95" type="DEFAULT_PEDTYPE">
        <walk depart="29198.00" departPos="14.05" arrival="29379.00" arrivalPos="23.94" duration="181.00" routeLength="250.40" timeLoss="1.02" maxSpeed="1.39"/>
        <ride waitingTime="347.00" vehicle="taxi10" depart="29726.00" arrival="29856.00" arrivalPos="25.00" duration="130.00" routeLength="1701.33" timeLoss="20.53"/>
        <walk depart="29856.00" departPos="25.00" arrival="29969.00" arrivalPos="0.24" duration="113.00" routeLength="143.26" timeLoss="10.03" maxSpeed="1.39"/>
    </personinfo>
    <personinfo id="tn85" depart="28889.60" type="DEFAULT_PEDTYPE">
        <walk depart="28890.00" departPos="26.86" arrival="29304.00" arrivalPos="553.86" duration="414.00" routeLength="551.68" timeLoss="46.34" maxSpeed="1.50"/>
        <ride waitingTime="520.00" vehicle="taxi54" depart="29824.00" arrival="30048.00" arrivalPos="25.00" duration="224.00" routeLength="3011.61" timeLoss="32.99"/>
        <walk depart="30048.00" departPos="25.00" arrival="30049.00" arrivalPos="25.50" duration="1.00" routeLength="0.50" timeLoss="0.67" maxSpeed="1.50"/>
    </personinfo>
    <personinfo id="d136" depart="29903.27" type="DEFAULT_PEDTYPE">
        <walk depart="29904.00" departPos="19.62" arrival="29909.00" arrivalPos="15.00" duration="5.00" routeLength="4.62" timeLoss="1.19" maxSpeed="1.22"/>
        <ride waitingTime="43.00" vehicle="taxi36" depart="29952.00" arrival="30199.00" arrivalPos="25.48" duration="247.00" routeLength="3430.92" timeLoss="25.54"/>
        <walk depart="30199.00" departPos="25.48" arrival="30466.00" arrivalPos="1.56" duration="267.00" routeLength="307.54" timeLoss="13.89" maxSpeed="1.22"/>
    </personinfo>
    <personinfo id="d145" depart="30205.95" type="DEFAULT_PEDTYPE">
        <walk depart="30206.00" departPos="8.37" arrival="30212.00" arrivalPos="15.00" duration="6.00" routeLength="6.63" timeLoss="0.77" maxSpeed="1.27"/>
        <ride waitingTime="39.00" vehicle="taxi27" depart="30251.00" arrival="30392.00" arrivalPos="53.58" duration="141.00" routeLength="1640.39" timeLoss="23.87"/>
        <walk depart="30392.00" departPos="53.58" arrival="30489.00" arrivalPos="18.64" duration="97.00" routeLength="43.59" timeLoss="62.61" maxSpeed="1.27"/>
    </personinfo>
    <personinfo id="th129" depart="29903.27" type="DEFAULT_PEDTYPE">
        <walk depart="29904.00" departPos="12.29" arrival="30253.00" arrivalPos="184.55" duration="349.00" routeLength="448.72" timeLoss="34.21" maxSpeed="1.43"/>
        <ride waitingTime="373.00" vehicle="taxi27" depart="30626.00" arrival="30812.00" arrivalPos="25.00" duration="186.00" routeLength="2642.55" timeLoss="26.12"/>
        <walk depart="30812.00" departPos="25.00" arrival="30830.00" arrivalPos="1.24" duration="18.00" routeLength="23.76" timeLoss="1.33" maxSpeed="1.43"/>
    </personinfo>
    <personinfo id="th32" depart="28958.69" type="DEFAULT_PEDTYPE">
        <walk depart="28959.00" departPos="53.62" arrival="28991.00" arrivalPos="15.53" duration="32.00" routeLength="38.09" timeLoss="4.16" maxSpeed="1.37"/>
        <ride waitingTime="518.00" vehicle="taxi18" depart="29509.00" arrival="30815.00" arrivalPos="6.18" duration="1306.00" routeLength="24310.70" timeLoss="77.22"/>
        <walk depart="30815.00" departPos="6.18" arrival="30835.00" arrivalPos="24.95" duration="20.00" routeLength="41.80" timeLoss="-10.56" maxSpeed="1.37"/>
    </personinfo>
    <personinfo id="th138" depart="30205.95" type="DEFAULT_PEDTYPE">
        <walk depart="30206.00" departPos="2.94" arrival="30213.00" arrivalPos="5.29" duration="7.00" routeLength="28.15" timeLoss="-11.88" maxSpeed="1.49"/>
        <ride waitingTime="445.00" vehicle="taxi71" depart="30658.00" arrival="30927.00" arrivalPos="20.00" duration="269.00" routeLength="4213.08" timeLoss="36.07"/>
        <walk depart="30927.00" departPos="20.00" arrival="30928.00" arrivalPos="20.38" duration="1.00" routeLength="0.38" timeLoss="0.75" maxSpeed="1.49"/>
    </personinfo>
    <personinfo id="tp138" depart="30205.95" type="DEFAULT_PEDTYPE">
        <walk depart="30206.00" departPos="3.30" arrival="30215.00" arrivalPos="5.29" duration="9.00" routeLength="28.51" timeLoss="-15.94" maxSpeed="1.14"/>
        <ride waitingTime="464.00" vehicle="taxi62" depart="30679.00" arrival="30939.00" arrivalPos="20.00" duration="260.00" routeLength="4213.88" timeLoss="31.75"/>
        <walk depart="30939.00" departPos="20.00" arrival="30940.00" arrivalPos="20.38" duration="1.00" routeLength="0.38" timeLoss="0.67" maxSpeed="1.14"/>
    </personinfo>
    <personinfo id="tp129" depart="29903.27" type="DEFAULT_PEDTYPE">
        <walk depart="29904.00" departPos="30.21" arrival="30309.00" arrivalPos="184.55" duration="405.00" routeLength="466.65" timeLoss="40.72" maxSpeed="1.28"/>
        <ride waitingTime="438.00" vehicle="taxi53" depart="30747.00" arrival="30932.00" arrivalPos="25.00" duration="185.00" routeLength="2643.35" timeLoss="35.89"/>
        <walk depart="30932.00" departPos="25.00" arrival="30953.00" arrivalPos="1.24" duration="21.00" routeLength="23.76" timeLoss="2.45" maxSpeed="1.28"/>
    </personinfo>
    <personinfo id="tp26" depart="29784.39" type="DEFAULT_PEDTYPE">
        <walk depart="29785.00" departPos="134.49" arrival="30087.00" arrivalPos="2.55" duration="302.00" routeLength="418.73" timeLoss="23.95" maxSpeed="1.51"/>
        <ride waitingTime="42.00" vehicle="taxi71" depart="30129.00" arrival="30412.00" arrivalPos="18.17" duration="283.00" routeLength="4471.19" timeLoss="36.99"/>
        <walk depart="30412.00" departPos="18.17" arrival="31066.00" arrivalPos="36.60" duration="654.00" routeLength="938.96" timeLoss="30.51" maxSpeed="1.51"/>
    </personinfo>
    <personinfo id="d115" depart="30649.67" type="DEFAULT_PEDTYPE">
        <walk depart="30650.00" departPos="11.11" arrival="30653.00" arrivalPos="15.00" duration="3.00" routeLength="3.89" timeLoss="0.30" maxSpeed="1.44"/>
        <ride waitingTime="245.00" vehicle="taxi27" depart="30898.00" arrival="31023.00" arrivalPos="17.26" duration="125.00" routeLength="1533.40" timeLoss="20.90"/>
        <walk depart="31023.00" departPos="17.26" arrival="31077.00" arrivalPos="27.61" duration="54.00" routeLength="78.11" timeLoss="-0.26" maxSpeed="1.44"/>
    </personinfo>
    <personinfo id="tn26" depart="29784.39" type="DEFAULT_PEDTYPE">
        <walk depart="29785.00" departPos="144.50" arrival="30112.00" arrivalPos="2.55" duration="327.00" routeLength="428.74" timeLoss="28.69" maxSpeed="1.44"/>
        <ride waitingTime="48.00" vehicle="taxi62" depart="30160.00" arrival="30436.00" arrivalPos="18.17" duration="276.00" routeLength="4471.19" timeLoss="36.30"/>
        <walk depart="30436.00" departPos="18.17" arrival="31121.00" arrivalPos="36.60" duration="685.00" routeLength="938.96" timeLoss="31.69" maxSpeed="1.44"/>
    </personinfo>
    <personinfo id="th26" depart="29784.39" type="DEFAULT_PEDTYPE">
        <walk depart="29785.00" departPos="147.82" arrival="30136.00" arrivalPos="2.55" duration="351.00" routeLength="432.07" timeLoss="30.61" maxSpeed="1.35"/>
        <ride waitingTime="52.00" vehicle="taxi53" depart="30188.00" arrival="30455.00" arrivalPos="18.17" duration="267.00" routeLength="4471.18" timeLoss="34.58"/>
        <walk depart="30455.00" departPos="18.17" arrival="31184.00" arrivalPos="36.60" duration="729.00" routeLength="938.96" timeLoss="32.73" maxSpeed="1.35"/>
    </personinfo>
    <personinfo id="tp32" depart="28958.69" type="DEFAULT_PEDTYPE">
        <walk depart="28959.00" departPos="49.98" arrival="28988.00" arrivalPos="15.53" duration="29.00" routeLength="34.45" timeLoss="3.74" maxSpeed="1.36"/>
        <ride waitingTime="937.00" vehicle="taxi63" depart="29925.00" arrival="31199.00" arrivalPos="6.18" duration="1274.00" routeLength="24304.96" timeLoss="75.53"/>
        <walk depart="31199.00" departPos="6.18" arrival="31220.00" arrivalPos="24.95" duration="21.00" routeLength="41.80" timeLoss="-9.65" maxSpeed="1.36"/>
    </personinfo>
    <personinfo id="d66" depart="30056.12" type="DEFAULT_PEDTYPE">
        <walk depart="30057.00" departPos="11.90" arrival="30060.00" arrivalPos="15.00" duration="3.00" routeLength="3.10" timeLoss="0.67" maxSpeed="1.33"/>
        <ride waitingTime="491.00" vehicle="taxi36" depart="30551.00" arrival="31181.00" arrivalPos="34.99" duration="630.00" routeLength="11146.75" timeLoss="66.96"/>
        <walk depart="31181.00" departPos="34.99" arrival="31223.00" arrivalPos="14.16" duration="42.00" routeLength="52.37" timeLoss="2.53" maxSpeed="1.33"/>
    </personinfo>
    <personinfo id="tn32" depart="28958.69" type="DEFAULT_PEDTYPE">
        <walk depart="28959.00" departPos="12.01" arrival="28962.00" arrivalPos="15.53" duration="3.00" routeLength="3.52" timeLoss="0.52" maxSpeed="1.42"/>
        <ride waitingTime="963.00" vehicle="taxi63" depart="29925.00" arrival="31199.00" arrivalPos="6.18" duration="1274.00" routeLength="24304.96" timeLoss="75.53"/>
        <walk depart="31199.00" departPos="6.18" arrival="31223.00" arrivalPos="19.95" duration="24.00" routeLength="46.80" timeLoss="-8.97" maxSpeed="1.42"/>
    </personinfo>
    <personinfo id="tn48" depart="30772.95" type="DEFAULT_PEDTYPE">
        <walk depart="30773.00" departPos="12.59" arrival="30833.00" arrivalPos="10.67" duration="60.00" routeLength="67.67" timeLoss="8.68" maxSpeed="1.32"/>
        <ride waitingTime="98.00" vehicle="taxi45" depart="30931.00" arrival="31322.00" arrivalPos="20.00" duration="391.00" routeLength="6731.42" timeLoss="45.23"/>
        <walk depart="31322.00" departPos="20.00" arrival="31338.00" arrivalPos="1.20" duration="16.00" routeLength="18.80" timeLoss="1.74" maxSpeed="1.32"/>
    </personinfo>
    <personinfo id="tn68" depart="30891.43" type="DEFAULT_PEDTYPE">
        <walk depart="30892.00" departPos="0.06" arrival="30898.00" arrivalPos="6.12" duration="6.00" routeLength="8.85" timeLoss="-1.09" maxSpeed="1.25"/>
        <ride waitingTime="381.00" vehicle="taxi27" depart="31279.00" arrival="31435.00" arrivalPos="109.72" duration="156.00" routeLength="2593.64" timeLoss="30.94"/>
        <walk depart="31435.00" departPos="109.72" arrival="31487.00" arrivalPos="0.15" duration="52.00" routeLength="56.08" timeLoss="7.12" maxSpeed="1.25"/>
    </personinfo>
    <personinfo id="th109" depart="30649.67" type="DEFAULT_PEDTYPE">
        <walk depart="30650.00" departPos="5.31" arrival="30911.00" arrivalPos="5.29" duration="261.00" routeLength="341.36" timeLoss="-3.61" maxSpeed="1.29"/>
        <ride waitingTime="317.00" vehicle="taxi71" depart="31228.00" arrival="31487.00" arrivalPos="15.00" duration="259.00" routeLength="3811.60" timeLoss="45.36"/>
        <walk depart="31487.00" departPos="15.00" arrival="31539.00" arrivalPos="14.92" duration="52.00" routeLength="63.55" timeLoss="2.74" maxSpeed="1.29"/>
    </personinfo>
    <personinfo id="tp109" depart="30649.67" type="DEFAULT_PEDTYPE">
        <walk depart="30650.00" departPos="0.53" arrival="30862.00" arrivalPos="5.29" duration="212.00" routeLength="346.14" timeLoss="-1.46" maxSpeed="1.62"/>
        <ride waitingTime="353.00" vehicle="taxi71" depart="31215.00" arrival="31487.00" arrivalPos="15.00" duration="272.00" routeLength="3845.51" timeLoss="52.10"/>
        <walk depart="31487.00" departPos="15.00" arrival="31540.00" arrivalPos="14.92" duration="53.00" routeLength="63.55" timeLoss="13.81" maxSpeed="1.62"/>
    </personinfo>
    <personinfo id="tn64" depart="29217.29" type="DEFAULT_PEDTYPE">
        <walk depart="29218.00" departPos="2.70" arrival="29839.00" arrivalPos="18.71" duration="621.00" routeLength="709.11" timeLoss="20.79" maxSpeed="1.18"/>
        <ride waitingTime="629.00" vehicle="taxi54" depart="30468.00" arrival="31300.00" arrivalPos="5.00" duration="832.00" routeLength="12632.64" timeLoss="90.27"/>
        <walk depart="31300.00" departPos="5.00" arrival="31935.00" arrivalPos="108.49" duration="635.00" routeLength="703.52" timeLoss="39.51" maxSpeed="1.18"/>
    </personinfo>
    <personinfo id="d57" depart="30960.73" type="DEFAULT_PEDTYPE">
        <walk depart="30961.00" departPos="20.00" arrival="30965.00" arrivalPos="15.00" duration="4.00" routeLength="5.00" timeLoss="0.54" maxSpeed="1.44"/>
        <ride waitingTime="393.00" vehicle="taxi45" depart="31358.00" arrival="32014.00" arrivalPos="15.00" duration="656.00" routeLength="11421.62" timeLoss="83.12"/>
        <walk depart="32014.00" departPos="15.00" arrival="32020.00" arrivalPos="21.47" duration="6.00" routeLength="6.47" timeLoss="1.52" maxSpeed="1.44"/>
    </personinfo>
    <personinfo id="th156" depart="31417.42" type="DEFAULT_PEDTYPE">
        <walk depart="31418.00" departPos="15.43" arrival="31439.00" arrivalPos="7.50" duration="21.00" routeLength="33.82" timeLoss="-6.05" maxSpeed="1.25"/>
        <ride waitingTime="147.00" vehicle="taxi47" depart="31586.00" arrival="32035.00" arrivalPos="25.00" duration="449.00" routeLength="6222.88" timeLoss="78.69"/>
        <walk depart="32035.00" departPos="25.00" arrival="32046.00" arrivalPos="13.22" duration="11.00" routeLength="11.78" timeLoss="1.58" maxSpeed="1.25"/>
    </personinfo>
    <personinfo id="tp156" depart="31417.42" type="DEFAULT_PEDTYPE">
        <walk depart="31418.00" departPos="21.06" arrival="31440.00" arrivalPos="7.50" duration="22.00" routeLength="39.45" timeLoss="-4.98" maxSpeed="1.46"/>
        <ride waitingTime="146.00" vehicle="taxi47" depart="31586.00" arrival="32035.00" arrivalPos="25.00" duration="449.00" routeLength="6222.88" timeLoss="78.69"/>
        <walk depart="32035.00" departPos="25.00" arrival="32048.00" arrivalPos="13.22" duration="13.00" routeLength="11.78" timeLoss="4.94" maxSpeed="1.46"/>
    </personinfo>
    <personinfo id="tp153" depart="30962.87" type="DEFAULT_PEDTYPE">
        <walk depart="30963.00" departPos="102.04" arrival="31492.00" arrivalPos="184.55" duration="529.00" routeLength="743.79" timeLoss="39.25" maxSpeed="1.52"/>
        <ride waitingTime="300.00" vehicle="taxi47" depart="31792.00" arrival="32035.00" arrivalPos="25.00" duration="243.00" routeLength="3217.66" timeLoss="48.65"/>
        <walk depart="32035.00" departPos="25.00" arrival="32057.00" arrivalPos="0.17" duration="22.00" routeLength="24.83" timeLoss="5.65" maxSpeed="1.52"/>
    </personinfo>
    <personinfo id="th153" depart="30962.87" type="DEFAULT_PEDTYPE">
        <walk depart="30963.00" departPos="116.84" arrival="31598.00" arrivalPos="184.55" duration="635.00" routeLength="758.59" timeLoss="43.96" maxSpeed="1.28"/>
        <ride waitingTime="246.00" vehicle="taxi47" depart="31844.00" arrival="32036.00" arrivalPos="25.00" duration="192.00" routeLength="2643.35" timeLoss="26.21"/>
        <walk depart="32036.00" departPos="25.00" arrival="32058.00" arrivalPos="0.17" duration="22.00" routeLength="24.83" timeLoss="2.65" maxSpeed="1.28"/>
    </personinfo>
    <personinfo id="th89" depart="31346.34" type="DEFAULT_PEDTYPE">
        <walk depart="31347.00" departPos="14.25" arrival="31483.00" arrivalPos="9.76" duration="136.00" routeLength="164.59" timeLoss="6.52" maxSpeed="1.27"/>
        <ride waitingTime="88.00" vehicle="taxi11" depart="31571.00" arrival="32098.00" arrivalPos="34.99" duration="527.00" routeLength="9566.43" timeLoss="58.79"/>
        <walk depart="32098.00" departPos="34.99" arrival="32140.00" arrivalPos="12.82" duration="42.00" routeLength="51.03" timeLoss="1.86" maxSpeed="1.27"/>
    </personinfo>
    <personinfo id="tp89" depart="31346.34" type="DEFAULT_PEDTYPE">
        <walk depart="31347.00" departPos="65.40" arrival="31428.00" arrivalPos="9.76" duration="81.00" routeLength="113.44" timeLoss="2.00" maxSpeed="1.44"/>
        <ride waitingTime="114.00" vehicle="taxi11" depart="31542.00" arrival="32098.00" arrivalPos="34.99" duration="556.00" routeLength="9725.62" timeLoss="73.58"/>
        <walk depart="32098.00" departPos="34.99" arrival="32141.00" arrivalPos="12.82" duration="43.00" routeLength="51.03" timeLoss="7.46" maxSpeed="1.44"/>
    </personinfo>
    <personinfo id="d141" depart="31854.41" type="DEFAULT_PEDTYPE">
        <walk depart="31855.00" departPos="26.50" arrival="31868.00" arrivalPos="10.00" duration="13.00" routeLength="16.50" timeLoss="1.61" maxSpeed="1.45"/>
        <ride waitingTime="238.00" vehicle="taxi47" depart="32106.00" arrival="32291.00" arrivalPos="33.59" duration="185.00" routeLength="1996.39" timeLoss="39.95"/>
        <walk depart="32291.00" departPos="33.59" arrival="32348.00" arrivalPos="36.77" duration="57.00" routeLength="76.07" timeLoss="4.49" maxSpeed="1.45"/>
    </personinfo>
    <personinfo id="th146" depart="32072.04" type="DEFAULT_PEDTYPE">
        <walk depart="32073.00" departPos="94.87" arrival="32131.00" arrivalPos="7.50" duration="58.00" routeLength="87.37" timeLoss="5.78" maxSpeed="1.67"/>
        <ride waitingTime="164.00" vehicle="taxi2" depart="32295.00" arrival="32580.00" arrivalPos="25.00" duration="285.00" routeLength="2780.83" timeLoss="44.14"/>
        <walk depart="32580.00" departPos="25.00" arrival="32589.00" arrivalPos="12.94" duration="9.00" routeLength="12.06" timeLoss="1.79" maxSpeed="1.67"/>
    </personinfo>
    <personinfo id="tp146" depart="32072.04" type="DEFAULT_PEDTYPE">
        <walk depart="32073.00" departPos="109.90" arrival="32152.00" arrivalPos="7.50" duration="79.00" routeLength="102.40" timeLoss="6.62" maxSpeed="1.41"/>
        <ride waitingTime="218.00" vehicle="taxi2" depart="32370.00" arrival="32580.00" arrivalPos="25.00" duration="210.00" routeLength="2295.31" timeLoss="29.41"/>
        <walk depart="32580.00" departPos="25.00" arrival="32590.00" arrivalPos="12.94" duration="10.00" routeLength="12.06" timeLoss="1.48" maxSpeed="1.41"/>
    </personinfo>
    <personinfo id="d135" depart="32308.99" type="DEFAULT_PEDTYPE">
        <walk depart="32309.00" departPos="18.06" arrival="32312.00" arrivalPos="15.00" duration="3.00" routeLength="3.06" timeLoss="0.74" maxSpeed="1.35"/>
        <ride waitingTime="36.00" vehicle="taxi9" depart="32348.00" arrival="32480.00" arrivalPos="95.33" duration="132.00" routeLength="1231.30" timeLoss="26.40"/>
        <walk depart="32480.00" departPos="95.33" arrival="32642.00" arrivalPos="46.41" duration="162.00" routeLength="252.67" timeLoss="-25.20" maxSpeed="1.35"/>
    </personinfo>
    <personinfo id="d91" depart="32165.36" type="DEFAULT_PEDTYPE">
        <walk depart="32166.00" departPos="10.10" arrival="32170.00" arrivalPos="15.00" duration="4.00" routeLength="4.90" timeLoss="0.53" maxSpeed="1.41"/>
        <ride waitingTime="57.00" vehicle="taxi0" depart="32227.00" arrival="32718.00" arrivalPos="23.03" duration="491.00" routeLength="6811.71" timeLoss="90.19"/>
        <walk depart="32718.00" departPos="23.03" arrival="32825.00" arrivalPos="33.80" duration="107.00" routeLength="138.69" timeLoss="8.91" maxSpeed="1.41"/>
    </personinfo>
    <personinfo id="th136" depart="32421.41" type="DEFAULT_PEDTYPE">
        <walk depart="32422.00" departPos="0.85" arrival="32618.00" arrivalPos="37.39" duration="196.00" routeLength="265.38" timeLoss="17.50" maxSpeed="1.49"/>
        <ride waitingTime="57.00" vehicle="taxi29" depart="32675.00" arrival="32852.00" arrivalPos="25.00" duration="177.00" routeLength="2129.99" timeLoss="25.31"/>
        <walk depart="32852.00" departPos="25.00" arrival="32864.00" arrivalPos="9.21" duration="12.00" routeLength="15.79" timeLoss="1.38" maxSpeed="1.49"/>
    </personinfo>
    <personinfo id="tp136" depart="32421.41" type="DEFAULT_PEDTYPE">
        <walk depart="32422.00" departPos="2.26" arrival="32604.00" arrivalPos="37.39" duration="182.00" routeLength="263.97" timeLoss="14.13" maxSpeed="1.57"/>
        <ride waitingTime="36.00" vehicle="taxi29" depart="32640.00" arrival="32852.00" arrivalPos="25.00" duration="212.00" routeLength="2304.50" timeLoss="43.87"/>
        <walk depart="32852.00" departPos="25.00" arrival="32865.00" arrivalPos="9.21" duration="13.00" routeLength="15.79" timeLoss="2.96" maxSpeed="1.57"/>
    </personinfo>
    <personinfo id="d35" depart="31079.74" type="DEFAULT_PEDTYPE">
        <walk depart="31080.00" departPos="4.74" arrival="31089.00" arrivalPos="15.00" duration="9.00" routeLength="10.26" timeLoss="1.65" maxSpeed="1.40"/>
        <ride waitingTime="823.00" vehicle="taxi36" depart="31912.00" arrival="32809.00" arrivalPos="15.00" duration="897.00" routeLength="16674.26" timeLoss="76.87"/>
        <walk depart="32809.00" departPos="15.00" arrival="32945.00" arrivalPos="1.00" duration="136.00" routeLength="212.89" timeLoss="-16.48" maxSpeed="1.40"/>
    </personinfo>
    <personinfo id="th63" depart="30915.84" type="DEFAULT_PEDTYPE">
        <walk depart="30916.00" departPos="4.54" arrival="31312.00" arrivalPos="87.83" duration="396.00" routeLength="511.31" timeLoss="27.92" maxSpeed="1.39"/>
        <ride waitingTime="699.00" vehicle="taxi27" depart="32011.00" arrival="32886.00" arrivalPos="15.00" duration="875.00" routeLength="16291.54" timeLoss="75.18"/>
        <walk depart="32886.00" departPos="15.00" arrival="32980.00" arrivalPos="7.10" duration="94.00" routeLength="119.44" timeLoss="8.02" maxSpeed="1.39"/>
    </personinfo>
    <personinfo id="tp63" depart="30915.84" type="DEFAULT_PEDTYPE">
        <walk depart="30916.00" departPos="53.38" arrival="31374.00" arrivalPos="87.83" duration="458.00" routeLength="560.16" timeLoss="33.92" maxSpeed="1.32"/>
        <ride waitingTime="637.00" vehicle="taxi27" depart="32011.00" arrival="32886.00" arrivalPos="15.00" duration="875.00" routeLength="16291.54" timeLoss="75.18"/>
        <walk depart="32886.00" departPos="15.00" arrival="32986.00" arrivalPos="7.10" duration="100.00" routeLength="119.44" timeLoss="9.58" maxSpeed="1.32"/>
    </personinfo>
    <personinfo id="th69" depart="30891.43" type="DEFAULT_PEDTYPE">
        <walk depart="30892.00" departPos="0.08" arrival="30900.00" arrivalPos="6.12" duration="8.00" routeLength="8.87" timeLoss="1.97" maxSpeed="1.47"/>
        <ride waitingTime="351.00" vehicle="taxi53" depart="31251.00" arrival="33010.00" arrivalPos="44.42" duration="1759.00" routeLength="35387.45" timeLoss="134.65"/>
        <walk depart="33010.00" departPos="44.42" arrival="33028.00" arrivalPos="11.26" duration="18.00" routeLength="23.06" timeLoss="2.33" maxSpeed="1.47"/>
    </personinfo>
    <personinfo id="d144" depart="32585.92" type="DEFAULT_PEDTYPE">
        <walk depart="32586.00" departPos="9.20" arrival="32591.00" arrivalPos="15.00" duration="5.00" routeLength="5.80" timeLoss="0.86" maxSpeed="1.40"/>
        <ride waitingTime="269.00" vehicle="taxi29" depart="32860.00" arrival="33001.00" arrivalPos="53.58" duration="141.00" routeLength="1639.99" timeLoss="21.45"/>
        <walk depart="33001.00" departPos="53.58" arrival="33048.00" arrivalPos="70.72" duration="47.00" routeLength="61.37" timeLoss="3.15" maxSpeed="1.40"/>
    </personinfo>
    <personinfo id="tp69" depart="30891.43" type="DEFAULT_PEDTYPE">
        <walk depart="30892.00" departPos="0.07" arrival="30899.00" arrivalPos="6.12" duration="7.00" routeLength="8.87" timeLoss="0.03" maxSpeed="1.27"/>
        <ride waitingTime="368.00" vehicle="taxi62" depart="31267.00" arrival="33091.00" arrivalPos="44.42" duration="1824.00" routeLength="35386.65" timeLoss="133.34"/>
        <walk depart="33091.00" departPos="44.42" arrival="33112.00" arrivalPos="11.26" duration="21.00" routeLength="23.06" timeLoss="2.86" maxSpeed="1.27"/>