<?xml version="1.0" encoding="UTF-8"?>

<!-- generated by Eclipse SUMO GUI Version 1.12.0
<configuration xmlns:xsi="http://www.w3.org/2001/XMLSchema-instance" xsi:noNamespaceSchemaLocation="http://sumo.dlr.de/xsd/sumoConfiguration.xsd">

    <input>
        <net-file value="D:\Dokumente\sumo\maloja\simple.net.xml"/>
        <route-files value="D:\Dokumente\sumo\maloja\09_daytrips\persontrips_maloja_daytrips_resolved_offseason_taxi.rou.xml,D:\Dokumente\sumo\maloja\11_hotel\persontrips_maloja_hotel_resolved_offseason_taxi.rou.xml,D:\Dokumente\sumo\maloja\12_non_hotel\persontrips_maloja_non_hotel_resolved_offseason_taxi.rou.xml,D:\Dokumente\sumo\maloja\13_private\persontrips_maloja_private_resolved_offseason_taxi.rou.xml"/>
        <additional-files value="D:\Dokumente\sumo\maloja\03_bus\virtualstop.add.xml,D:\Dokumente\sumo\maloja\03_bus\03_November\gtfs_pt_stops.add.xml,drt_fleet.xml,drt_parking.add.xml,drt_parking_rerouter.add.xml"/>
    </input>

    <output>
        <tripinfo-output value="tripinfos_drt.xml"/>
        <tripinfo-output.write-unfinished value="true"/>
        <stop-output value="stopinfos_drt.xml"/>
        <statistic-output value="stats_drt.xml"/>
    </output>

    <time>
        <begin value="20520"/>
        <end value="77400"/>
    </time>

    <routing>
        <routing-algorithm value="CH"/>
        <persontrip.transfer.taxi-walk value="ptStops"/>
        <persontrip.transfer.walk-taxi value="ptStops"/>
    </routing>

    <report>
        <verbose value="true"/>
        <log value="simulation.log.txt"/>
        <error-log value="sumo_error.log"/>
        <duration-log.statistics value="true"/>
    </report>

    <taxi_device>
        <device.taxi.dispatch-algorithm value="traci"/>
    </taxi_device>

    <traci_server>
        <remote-port value="50981"/>
    </traci_server>

    <gui_only>
        <gui-settings-file value="view.xml"/>
    </gui_only>

</configuration>
-->

<tripinfos xmlns:xsi="http://www.w3.org/2001/XMLSchema-instance" xsi:noNamespaceSchemaLocation="http://sumo.dlr.de/xsd/tripinfo_file.xsd">
    <personinfo id="d92" depart="29122.82" type="DEFAULT_PEDTYPE">
        <walk depart="29123.00" departPos="10.91" arrival="29127.00" arrivalPos="15.00" duration="4.00" routeLength="4.09" timeLoss="0.96" maxSpeed="1.34"/>
        <ride waitingTime="42.00" vehicle="taxi90" depart="29169.00" arrival="29568.00" arrivalPos="13.24" duration="399.00" routeLength="6663.45" timeLoss="43.15"/>
        <walk depart="29568.00" departPos="13.24" arrival="29608.00" arrivalPos="0.67" duration="40.00" routeLength="47.62" timeLoss="4.58" maxSpeed="1.34"/>
    </personinfo>
    <personinfo id="d89" depart="29197.95" type="DEFAULT_PEDTYPE">
        <walk depart="29198.00" departPos="4.83" arrival="29206.00" arrivalPos="15.00" duration="8.00" routeLength="10.17" timeLoss="1.50" maxSpeed="1.56"/>
        <ride waitingTime="52.00" vehicle="taxi72" depart="29258.00" arrival="29681.00" arrivalPos="524.38" duration="423.00" routeLength="7115.34" timeLoss="46.34"/>
        <walk depart="29681.00" departPos="524.38" arrival="29706.00" arrivalPos="23.98" duration="25.00" routeLength="38.11" timeLoss="0.62" maxSpeed="1.56"/>
    </personinfo>
    <personinfo id="tp122" depart="28979.52" type="DEFAULT_PEDTYPE">
        <walk depart="28980.00" departPos="0.56" arrival="28995.00" arrivalPos="18.71" duration="15.00" routeLength="18.15" timeLoss="1.63" maxSpeed="1.36"/>
        <ride waitingTime="60.00" vehicle="taxi64" depart="29055.00" arrival="29452.00" arrivalPos="45.55" duration="397.00" routeLength="3978.00" timeLoss="42.56"/>
        <walk depart="29452.00" departPos="45.55" arrival="29888.00" arrivalPos="105.14" duration="436.00" routeLength="553.33" timeLoss="28.41" maxSpeed="1.36"/>
    </personinfo>
    <personinfo id="tn85" depart="28889.60" type="DEFAULT_PEDTYPE">
        <walk depart="28890.00" departPos="4.46" arrival="29266.00" arrivalPos="553.86" duration="376.00" routeLength="529.27" timeLoss="42.33" maxSpeed="1.59"/>
        <ride waitingTime="395.00" vehicle="taxi64" depart="29661.00" arrival="29891.00" arrivalPos="25.00" duration="230.00" routeLength="3011.61" timeLoss="31.34"/>
        <walk depart="29891.00" departPos="25.00" arrival="29892.00" arrivalPos="25.50" duration="1.00" routeLength="0.50" timeLoss="0.69" maxSpeed="1.59"/>
    </personinfo>
    <personinfo id="th83" depart="29197.95" type="DEFAULT_PEDTYPE">
        <walk depart="29198.00" departPos="40.87" arrival="29349.00" arrivalPos="23.94" duration="151.00" routeLength="223.57" timeLoss="0.94" maxSpeed="1.49"/>
        <ride waitingTime="69.00" vehicle="taxi11" depart="29418.00" arrival="29879.00" arrivalPos="15.00" duration="461.00" routeLength="8604.64" timeLoss="51.12"/>
        <walk depart="29879.00" departPos="15.00" arrival="29892.00" arrivalPos="1.99" duration="13.00" routeLength="20.20" timeLoss="-0.56" maxSpeed="1.49"/>
    </personinfo>
    <personinfo id="tp83" depart="29197.95" type="DEFAULT_PEDTYPE">
        <walk depart="29198.00" departPos="99.19" arrival="29303.00" arrivalPos="23.94" duration="105.00" routeLength="165.26" timeLoss="-6.74" maxSpeed="1.48"/>
        <ride waitingTime="74.00" vehicle="taxi11" depart="29377.00" arrival="29879.00" arrivalPos="15.00" duration="502.00" routeLength="8976.22" timeLoss="63.49"/>
        <walk depart="29879.00" departPos="15.00" arrival="29893.00" arrivalPos="1.99" duration="14.00" routeLength="20.20" timeLoss="0.34" maxSpeed="1.48"/>
    </personinfo>
    <personinfo id="d128" depart="28979.52" type="DEFAULT_PEDTYPE">
        <walk depart="28980.00" departPos="19.31" arrival="28987.00" arrivalPos="10.00" duration="7.00" routeLength="9.31" timeLoss="1.14" maxSpeed="1.59"/>
        <ride waitingTime="398.00" vehicle="taxi82" depart="29385.00" arrival="29569.00" arrivalPos="45.55" duration="184.00" routeLength="2626.38" timeLoss="27.34"/>
        <walk depart="29569.00" departPos="45.55" arrival="29943.00" arrivalPos="105.14" duration="374.00" routeLength="553.33" timeLoss="25.71" maxSpeed="1.59"/>
    </personinfo>
    <personinfo id="d56" depart="28921.78" type="DEFAULT_PEDTYPE">
        <walk depart="28922.00" departPos="0.38" arrival="28936.00" arrivalPos="15.00" duration="14.00" routeLength="14.62" timeLoss="1.77" maxSpeed="1.20"/>
        <ride waitingTime="54.00" vehicle="taxi81" depart="28990.00" arrival="29582.00" arrivalPos="15.00" duration="592.00" routeLength="10570.68" timeLoss="65.27"/>
        <walk depart="29582.00" departPos="15.00" arrival="29945.00" arrivalPos="62.06" duration="363.00" routeLength="452.97" timeLoss="-15.87" maxSpeed="1.20"/>
    </personinfo>
    <personinfo id="th122" depart="28979.52" type="DEFAULT_PEDTYPE">
        <walk depart="28980.00" departPos="14.78" arrival="28984.00" arrivalPos="18.71" duration="4.00" routeLength="3.93" timeLoss="1.02" maxSpeed="1.32"/>
        <ride waitingTime="33.00" vehicle="taxi82" depart="29017.00" arrival="29569.00" arrivalPos="45.55" duration="552.00" routeLength="5699.35" timeLoss="74.08"/>
        <walk depart="29569.00" departPos="45.55" arrival="30020.00" arrivalPos="105.14" duration="451.00" routeLength="553.33" timeLoss="31.07" maxSpeed="1.32"/>
    </personinfo>
    <personinfo id="tn81" depart="29197.95" type="DEFAULT_PEDTYPE">
        <walk depart="29198.00" departPos="6.21" arrival="29379.00" arrivalPos="23.94" duration="181.00" routeLength="258.23" timeLoss="1.27" maxSpeed="1.44"/>
        <ride waitingTime="530.00" vehicle="taxi90" depart="29909.00" arrival="30042.00" arrivalPos="25.00" duration="133.00" routeLength="1699.73" timeLoss="19.90"/>
        <walk depart="30042.00" departPos="25.00" arrival="30155.00" arrivalPos="0.24" duration="113.00" routeLength="143.26" timeLoss="13.29" maxSpeed="1.44"/>
    </personinfo>
    <personinfo id="d145" depart="30205.95" type="DEFAULT_PEDTYPE">
        <walk depart="30206.00" departPos="26.61" arrival="30215.00" arrivalPos="15.00" duration="9.00" routeLength="11.61" timeLoss="0.92" maxSpeed="1.44"/>
        <ride waitingTime="37.00" vehicle="taxi9" depart="30252.00" arrival="30399.00" arrivalPos="53.58" duration="147.00" routeLength="1640.39" timeLoss="24.26"/>
        <walk depart="30399.00" departPos="53.58" arrival="30485.00" arrivalPos="18.64" duration="86.00" routeLength="43.59" timeLoss="55.68" maxSpeed="1.44"/>
    </personinfo>
    <personinfo id="d136" depart="29903.27" type="DEFAULT_PEDTYPE">
        <walk depart="29904.00" departPos="25.65" arrival="29914.00" arrivalPos="15.00" duration="10.00" routeLength="10.65" timeLoss="1.47" maxSpeed="1.25"/>
        <ride waitingTime="186.00" vehicle="taxi90" depart="30100.00" arrival="30371.00" arrivalPos="25.48" duration="271.00" routeLength="3577.61" timeLoss="41.77"/>
        <walk depart="30371.00" departPos="25.48" arrival="30630.00" arrivalPos="1.56" duration="259.00" routeLength="307.54" timeLoss="12.62" maxSpeed="1.25"/>
    </personinfo>
    <personinfo id="th129" depart="29903.27" type="DEFAULT_PEDTYPE">
        <walk depart="29904.00" departPos="0.29" arrival="30298.00" arrivalPos="184.55" duration="394.00" routeLength="436.73" timeLoss="43.40" maxSpeed="1.25"/>
        <ride waitingTime="341.00" vehicle="taxi9" depart="30639.00" arrival="30834.00" arrivalPos="25.00" duration="195.00" routeLength="2638.41" timeLoss="27.32"/>
        <walk depart="30834.00" departPos="25.00" arrival="30856.00" arrivalPos="1.24" duration="22.00" routeLength="23.76" timeLoss="2.93" maxSpeed="1.25"/>
    </personinfo>
    <personinfo id="tp129" depart="29903.27" type="DEFAULT_PEDTYPE">
        <walk depart="29904.00" departPos="17.93" arrival="30365.00" arrivalPos="184.55" duration="461.00" routeLength="454.37" timeLoss="47.88" maxSpeed="1.10"/>
        <ride waitingTime="274.00" vehicle="taxi9" depart="30639.00" arrival="30834.00" arrivalPos="25.00" duration="195.00" routeLength="2638.41" timeLoss="27.32"/>
        <walk depart="30834.00" departPos="25.00" arrival="30859.00" arrivalPos="1.24" duration="25.00" routeLength="23.76" timeLoss="3.40" maxSpeed="1.10"/>
    </personinfo>
    <personinfo id="d66" depart="30056.12" type="DEFAULT_PEDTYPE">
        <walk depart="30057.00" departPos="26.56" arrival="30069.00" arrivalPos="15.00" duration="12.00" routeLength="11.56" timeLoss="1.91" maxSpeed="1.14"/>
        <ride waitingTime="59.00" vehicle="taxi90" depart="30128.00" arrival="30907.00" arrivalPos="34.99" duration="779.00" routeLength="11755.52" timeLoss="88.13"/>
        <walk depart="30907.00" departPos="34.99" arrival="30956.00" arrivalPos="14.16" duration="49.00" routeLength="52.37" timeLoss="3.26" maxSpeed="1.14"/>
    </personinfo>
    <personinfo id="th138" depart="30205.95" type="DEFAULT_PEDTYPE">
        <walk depart="30206.00" departPos="0.32" arrival="30212.00" arrivalPos="5.29" duration="6.00" routeLength="25.53" timeLoss="-16.56" maxSpeed="1.13"/>
        <ride waitingTime="519.00" vehicle="taxi89" depart="30731.00" arrival="30993.00" arrivalPos="20.00" duration="262.00" routeLength="4209.99" timeLoss="34.71"/>
        <walk depart="30993.00" departPos="20.00" arrival="30994.00" arrivalPos="20.38" duration="1.00" routeLength="0.38" timeLoss="0.66" maxSpeed="1.13"/>
    </personinfo>
    <personinfo id="tp138" depart="30205.95" type="DEFAULT_PEDTYPE">
        <walk depart="30206.00" departPos="1.06" arrival="30213.00" arrivalPos="5.29" duration="7.00" routeLength="26.27" timeLoss="-13.27" maxSpeed="1.30"/>
        <ride waitingTime="518.00" vehicle="taxi89" depart="30731.00" arrival="30993.00" arrivalPos="20.00" duration="262.00" routeLength="4209.99" timeLoss="34.71"/>
        <walk depart="30993.00" departPos="20.00" arrival="30994.00" arrivalPos="20.38" duration="1.00" routeLength="0.38" timeLoss="0.71" maxSpeed="1.30"/>
    </personinfo>
    <personinfo id="d115" depart="30649.67" type="DEFAULT_PEDTYPE">
        <walk depart="30650.00" departPos="17.13" arrival="30652.00" arrivalPos="15.00" duration="2.00" routeLength="2.13" timeLoss="0.57" maxSpeed="1.49"/>
        <ride waitingTime="268.00" vehicle="taxi9" depart="30920.00" arrival="31051.00" arrivalPos="17.26" duration="131.00" routeLength="1533.40" timeLoss="22.18"/>
        <walk depart="31051.00" departPos="17.26" arrival="31101.00" arrivalPos="27.61" duration="50.00" routeLength="78.11" timeLoss="-2.29" maxSpeed="1.49"/>
    </personinfo>
    <personinfo id="tn26" depart="29784.39" type="DEFAULT_PEDTYPE">
        <walk depart="29785.00" departPos="84.16" arrival="30098.00" arrivalPos="2.55" duration="313.00" routeLength="368.41" timeLoss="25.64" maxSpeed="1.28"/>
        <ride waitingTime="32.00" vehicle="taxi44" depart="30130.00" arrival="30407.00" arrivalPos="18.17" duration="277.00" routeLength="4470.56" timeLoss="40.49"/>
        <walk depart="30407.00" departPos="18.17" arrival="31176.00" arrivalPos="36.60" duration="769.00" routeLength="938.96" timeLoss="36.61" maxSpeed="1.28"/>
    </personinfo>
    <personinfo id="tp26" depart="29784.39" type="DEFAULT_PEDTYPE">
        <walk depart="29785.00" departPos="77.67" arrival="30081.00" arrivalPos="2.55" duration="296.00" routeLength="361.92" timeLoss="24.77" maxSpeed="1.33"/>
        <ride waitingTime="47.00" vehicle="taxi44" depart="30128.00" arrival="30407.00" arrivalPos="18.17" duration="279.00" routeLength="4471.16" timeLoss="41.46"/>
        <walk depart="30407.00" departPos="18.17" arrival="31177.00" arrivalPos="36.60" duration="770.00" routeLength="938.96" timeLoss="66.31" maxSpeed="1.33"/>
    </personinfo>
    <personinfo id="tp32" depart="28958.69" type="DEFAULT_PEDTYPE">
        <walk depart="28959.00" departPos="36.78" arrival="28975.00" arrivalPos="15.53" duration="16.00" routeLength="21.25" timeLoss="2.06" maxSpeed="1.52"/>
        <ride waitingTime="947.00" vehicle="taxi81" depart="29922.00" arrival="31189.00" arrivalPos="6.18" duration="1267.00" routeLength="24305.71" timeLoss="75.82"/>
        <walk depart="31189.00" departPos="6.18" arrival="31209.00" arrivalPos="24.95" duration="20.00" routeLength="41.80" timeLoss="-7.43" maxSpeed="1.52"/>
    </personinfo>
    <personinfo id="th32" depart="28958.69" type="DEFAULT_PEDTYPE">
        <walk depart="28959.00" departPos="3.09" arrival="28971.00" arrivalPos="15.53" duration="12.00" routeLength="12.44" timeLoss="2.12" maxSpeed="1.26"/>
        <ride waitingTime="946.00" vehicle="taxi81" depart="29917.00" arrival="31189.00" arrivalPos="6.18" duration="1272.00" routeLength="24309.10" timeLoss="79.42"/>
        <walk depart="31189.00" departPos="6.18" arrival="31210.00" arrivalPos="24.95" duration="21.00" routeLength="41.80" timeLoss="-12.20" maxSpeed="1.26"/>
    </personinfo>
    <personinfo id="tn32" depart="28958.69" type="DEFAULT_PEDTYPE">
        <walk depart="28959.00" departPos="62.68" arrival="28994.00" arrivalPos="15.53" duration="35.00" routeLength="47.15" timeLoss="3.45" maxSpeed="1.49"/>
        <ride waitingTime="928.00" vehicle="taxi81" depart="29922.00" arrival="31189.00" arrivalPos="6.18" duration="1267.00" routeLength="24305.71" timeLoss="75.82"/>
        <walk depart="31189.00" departPos="6.18" arrival="31214.00" arrivalPos="19.95" duration="25.00" routeLength="46.80" timeLoss="-6.32" maxSpeed="1.49"/>
    </personinfo>
    <personinfo id="th26" depart="29784.39" type="DEFAULT_PEDTYPE">
        <walk depart="29785.00" departPos="121.00" arrival="30174.00" arrivalPos="2.55" duration="389.00" routeLength="405.24" timeLoss="29.35" maxSpeed="1.13"/>
        <ride waitingTime="43.00" vehicle="taxi89" depart="30217.00" arrival="30492.00" arrivalPos="18.17" duration="275.00" routeLength="4471.22" timeLoss="35.57"/>
        <walk depart="30492.00" departPos="18.17" arrival="31364.00" arrivalPos="36.60" duration="872.00" routeLength="938.96" timeLoss="38.68" maxSpeed="1.13"/>
    </personinfo>
    <personinfo id="tn48" depart="30772.95" type="DEFAULT_PEDTYPE">
        <walk depart="30773.00" departPos="13.51" arrival="30819.00" arrivalPos="10.67" duration="46.00" routeLength="68.59" timeLoss="5.36" maxSpeed="1.69"/>
        <ride waitingTime="151.00" vehicle="taxi87" depart="30970.00" arrival="31365.00" arrivalPos="20.00" duration="395.00" routeLength="6731.42" timeLoss="41.89"/>
        <walk depart="31365.00" departPos="20.00" arrival="31378.00" arrivalPos="1.20" duration="13.00" routeLength="18.80" timeLoss="1.86" maxSpeed="1.69"/>
    </personinfo>
    <personinfo id="th109" depart="30649.67" type="DEFAULT_PEDTYPE">
        <walk depart="30650.00" departPos="1.84" arrival="30916.00" arrivalPos="5.29" duration="266.00" routeLength="344.83" timeLoss="-4.89" maxSpeed="1.27"/>
        <ride waitingTime="151.00" vehicle="taxi92" depart="31067.00" arrival="31339.00" arrivalPos="15.00" duration="272.00" routeLength="3811.60" timeLoss="40.61"/>
        <walk depart="31339.00" departPos="15.00" arrival="31391.00" arrivalPos="14.92" duration="52.00" routeLength="63.55" timeLoss="2.07" maxSpeed="1.27"/>
    </personinfo>
    <personinfo id="tn68" depart="30891.43" type="DEFAULT_PEDTYPE">
        <walk depart="30892.00" departPos="0.14" arrival="30899.00" arrivalPos="6.12" duration="7.00" routeLength="8.94" timeLoss="0.89" maxSpeed="1.46"/>
        <ride waitingTime="425.00" vehicle="taxi9" depart="31324.00" arrival="31489.00" arrivalPos="109.72" duration="165.00" routeLength="2590.54" timeLoss="34.38"/>
        <walk depart="31489.00" departPos="109.72" arrival="31536.00" arrivalPos="0.15" duration="47.00" routeLength="56.08" timeLoss="8.70" maxSpeed="1.46"/>
    </personinfo>
    <personinfo id="tp109" depart="30649.67" type="DEFAULT_PEDTYPE">
        <walk depart="30650.00" departPos="5.87" arrival="30907.00" arrivalPos="5.29" duration="257.00" routeLength="340.80" timeLoss="-3.90" maxSpeed="1.31"/>
        <ride waitingTime="401.00" vehicle="taxi9" depart="31308.00" arrival="31666.00" arrivalPos="15.00" duration="358.00" routeLength="3849.32" timeLoss="62.39"/>
        <walk depart="31666.00" departPos="15.00" arrival="31718.00" arrivalPos="14.92" duration="52.00" routeLength="63.55" timeLoss="3.35" maxSpeed="1.31"/>
    </personinfo>
    <personinfo id="th156" depart="31417.42" type="DEFAULT_PEDTYPE">
        <walk depart="31418.00" departPos="7.95" arrival="31431.00" arrivalPos="7.50" duration="13.00" routeLength="26.33" timeLoss="-6.32" maxSpeed="1.36"/>
        <ride waitingTime="287.00" vehicle="taxi38" depart="31718.00" arrival="31869.00" arrivalPos="25.00" duration="151.00" routeLength="1497.64" timeLoss="27.51"/>
        <walk depart="31869.00" departPos="25.00" arrival="31879.00" arrivalPos="13.22" duration="10.00" routeLength="11.78" timeLoss="1.36" maxSpeed="1.36"/>
    </personinfo>
    <personinfo id="tp156" depart="31417.42" type="DEFAULT_PEDTYPE">
        <walk depart="31418.00" departPos="7.55" arrival="31429.00" arrivalPos="7.50" duration="11.00" routeLength="25.94" timeLoss="-5.40" maxSpeed="1.58"/>
        <ride waitingTime="147.00" vehicle="taxi38" depart="31576.00" arrival="31869.00" arrivalPos="25.00" duration="293.00" routeLength="2916.34" timeLoss="50.92"/>
        <walk depart="31869.00" departPos="25.00" arrival="31880.00" arrivalPos="13.22" duration="11.00" routeLength="11.78" timeLoss="3.55" maxSpeed="1.58"/>
    </personinfo>
    <personinfo id="d57" depart="30960.73" type="DEFAULT_PEDTYPE">
        <walk depart="30961.00" departPos="18.90" arrival="30965.00" arrivalPos="15.00" duration="4.00" routeLength="3.90" timeLoss="1.30" maxSpeed="1.45"/>
        <ride waitingTime="483.00" vehicle="taxi87" depart="31448.00" arrival="32030.00" arrivalPos="15.00" duration="582.00" routeLength="10566.74" timeLoss="65.23"/>
        <walk depart="32030.00" departPos="15.00" arrival="32035.00" arrivalPos="21.47" duration="5.00" routeLength="6.47" timeLoss="0.53" maxSpeed="1.45"/>
    </personinfo>
    <personinfo id="tp153" depart="30962.87" type="DEFAULT_PEDTYPE">
        <walk depart="30963.00" departPos="17.81" arrival="31479.00" arrivalPos="184.55" duration="516.00" routeLength="659.55" timeLoss="33.89" maxSpeed="1.37"/>
        <ride waitingTime="512.00" vehicle="taxi9" depart="31991.00" arrival="32189.00" arrivalPos="25.00" duration="198.00" routeLength="2642.55" timeLoss="30.10"/>
        <walk depart="32189.00" departPos="25.00" arrival="32209.00" arrivalPos="0.17" duration="20.00" routeLength="24.83" timeLoss="1.85" maxSpeed="1.37"/>
    </personinfo>
    <personinfo id="tp89" depart="31346.34" type="DEFAULT_PEDTYPE">
        <walk depart="31347.00" departPos="65.85" arrival="31429.00" arrivalPos="9.76" duration="82.00" routeLength="112.99" timeLoss="0.31" maxSpeed="1.38"/>
        <ride waitingTime="217.00" vehicle="taxi0" depart="31646.00" arrival="32164.00" arrivalPos="34.99" duration="518.00" routeLength="9561.53" timeLoss="59.98"/>
        <walk depart="32164.00" departPos="34.99" arrival="32213.00" arrivalPos="12.82" duration="49.00" routeLength="51.03" timeLoss="12.11" maxSpeed="1.38"/>
    </personinfo>
    <personinfo id="th89" depart="31346.34" type="DEFAULT_PEDTYPE">
        <walk depart="31347.00" departPos="71.81" arrival="31455.00" arrivalPos="9.76" duration="108.00" routeLength="107.03" timeLoss="5.63" maxSpeed="1.05"/>
        <ride waitingTime="191.00" vehicle="taxi0" depart="31646.00" arrival="32164.00" arrivalPos="34.99" duration="518.00" routeLength="9561.53" timeLoss="59.98"/>
        <walk depart="32164.00" departPos="34.99" arrival="32215.00" arrivalPos="12.82" duration="51.00" routeLength="51.03" timeLoss="2.19" maxSpeed="1.05"/>
    </personinfo>
    <personinfo id="th153" depart="30962.87" type="DEFAULT_PEDTYPE">
        <walk depart="30963.00" departPos="112.89" arrival="31654.00" arrivalPos="184.55" duration="691.00" routeLength="754.64" timeLoss="48.91" maxSpeed="1.18"/>
        <ride waitingTime="427.00" vehicle="taxi38" depart="32081.00" arrival="32312.00" arrivalPos="25.00" duration="231.00" routeLength="2870.03" timeLoss="61.19"/>
        <walk depart="32312.00" departPos="25.00" arrival="32336.00" arrivalPos="0.17" duration="24.00" routeLength="24.83" timeLoss="2.87" maxSpeed="1.18"/>
    </personinfo>
    <personinfo id="d141" depart="31854.41" type="DEFAULT_PEDTYPE">
        <walk depart="31855.00" departPos="12.59" arrival="31857.00" arrivalPos="10.00" duration="2.00" routeLength="2.59" timeLoss="0.34" maxSpeed="1.56"/>
        <ride waitingTime="431.00" vehicle="taxi38" depart="32288.00" arrival="32548.00" arrivalPos="33.59" duration="260.00" routeLength="2143.08" timeLoss="56.92"/>
        <walk depart="32548.00" departPos="33.59" arrival="32600.00" arrivalPos="36.77" duration="52.00" routeLength="76.07" timeLoss="3.14" maxSpeed="1.56"/>
    </personinfo>
    <personinfo id="th146" depart="32072.04" type="DEFAULT_PEDTYPE">
        <walk depart="32073.00" departPos="212.40" arrival="32255.00" arrivalPos="7.50" duration="182.00" routeLength="204.90" timeLoss="17.01" maxSpeed="1.24"/>
        <ride waitingTime="207.00" vehicle="taxi2" depart="32462.00" arrival="32670.00" arrivalPos="25.00" duration="208.00" routeLength="2295.31" timeLoss="27.04"/>
        <walk depart="32670.00" departPos="25.00" arrival="32681.00" arrivalPos="12.94" duration="11.00" routeLength="12.06" timeLoss="1.29" maxSpeed="1.24"/>
    </personinfo>
    <personinfo id="tp146" depart="32072.04" type="DEFAULT_PEDTYPE">
        <walk depart="32073.00" departPos="209.00" arrival="32205.00" arrivalPos="7.50" duration="132.00" routeLength="201.50" timeLoss="13.99" maxSpeed="1.71"/>
        <ride waitingTime="181.00" vehicle="taxi2" depart="32386.00" arrival="32670.00" arrivalPos="25.00" duration="284.00" routeLength="2780.83" timeLoss="43.05"/>
        <walk depart="32670.00" departPos="25.00" arrival="32682.00" arrivalPos="12.94" duration="12.00" routeLength="12.06" timeLoss="4.94" maxSpeed="1.71"/>
    </personinfo>
    <personinfo id="d112" depart="32394.65" type="DEFAULT_PEDTYPE">
        <walk depart="32395.00" departPos="11.89" arrival="32397.00" arrivalPos="10.00" duration="2.00" routeLength="1.89" timeLoss="0.62" maxSpeed="1.36"/>
        <ride waitingTime="41.00" vehicle="taxi45" depart="32438.00" arrival="32602.00" arrivalPos="44.82" duration="164.00" routeLength="2073.74" timeLoss="28.08"/>
        <walk depart="32602.00" departPos="44.82" arrival="32723.00" arrivalPos="2.94" duration="121.00" routeLength="153.54" timeLoss="8.28" maxSpeed="1.36"/>
    </personinfo>
    <personinfo id="d91" depart="32165.36" type="DEFAULT_PEDTYPE">
        <walk depart="32166.00" departPos="6.29" arrival="32173.00" arrivalPos="15.00" duration="7.00" routeLength="8.71" timeLoss="0.56" maxSpeed="1.35"/>
        <ride waitingTime="56.00" vehicle="taxi63" depart="32229.00" arrival="32706.00" arrivalPos="23.03" duration="477.00" routeLength="6653.32" timeLoss="75.35"/>
        <walk depart="32706.00" departPos="23.03" arrival="32818.00" arrivalPos="33.80" duration="112.00" routeLength="138.69" timeLoss="9.48" maxSpeed="1.35"/>
    </personinfo>
    <personinfo id="th136" depart="32421.41" type="DEFAULT_PEDTYPE">
        <walk depart="32422.00" departPos="4.17" arrival="32615.00" arrivalPos="37.39" duration="193.00" routeLength="262.07" timeLoss="15.58" maxSpeed="1.48"/>
        <ride waitingTime="30.00" vehicle="taxi47" depart="32645.00" arrival="32826.00" arrivalPos="25.00" duration="181.00" routeLength="2129.19" timeLoss="27.01"/>
        <walk depart="32826.00" departPos="25.00" arrival="32839.00" arrivalPos="9.21" duration="13.00" routeLength="15.79" timeLoss="2.31" maxSpeed="1.48"/>
    </personinfo>
    <personinfo id="d100" depart="32367.26" type="DEFAULT_PEDTYPE">
        <walk depart="32368.00" departPos="25.60" arrival="32376.00" arrivalPos="15.00" duration="8.00" routeLength="10.60" timeLoss="0.99" maxSpeed="1.51"/>
        <ride waitingTime="33.00" vehicle="taxi18" depart="32409.00" arrival="32825.00" arrivalPos="13.24" duration="416.00" routeLength="6674.75" timeLoss="43.75"/>
        <walk depart="32825.00" departPos="13.24" arrival="32882.00" arrivalPos="19.40" duration="57.00" routeLength="91.42" timeLoss="-3.41" maxSpeed="1.51"/>
    </personinfo>
    <personinfo id="th63" depart="30915.84" type="DEFAULT_PEDTYPE">
        <walk depart="30916.00" departPos="80.25" arrival="31388.00" arrivalPos="87.83" duration="472.00" routeLength="587.03" timeLoss="36.11" maxSpeed="1.35"/>
        <ride waitingTime="559.00" vehicle="taxi92" depart="31947.00" arrival="32872.00" arrivalPos="15.00" duration="925.00" routeLength="16291.52" timeLoss="73.83"/>
        <walk depart="32872.00" departPos="15.00" arrival="32969.00" arrivalPos="7.10" duration="97.00" routeLength="119.44" timeLoss="8.31" maxSpeed="1.35"/>
    </personinfo>
    <personinfo id="tp63" depart="30915.84" type="DEFAULT_PEDTYPE">
        <walk depart="30916.00" departPos="21.18" arrival="31356.00" arrivalPos="87.83" duration="440.00" routeLength="527.96" timeLoss="33.15" maxSpeed="1.30"/>
        <ride waitingTime="591.00" vehicle="taxi92" depart="31947.00" arrival="32872.00" arrivalPos="15.00" duration="925.00" routeLength="16291.52" timeLoss="73.83"/>
        <walk depart="32872.00" departPos="15.00" arrival="32972.00" arrivalPos="7.10" duration="100.00" routeLength="119.44" timeLoss="7.96" maxSpeed="1.30"/>
    </personinfo>
    <personinfo id="d35" depart="31079.74" type="DEFAULT_PEDTYPE">
        <walk depart="31080.00" departPos="18.84" arrival="31084.00" arrivalPos="15.00" duration="4.00" routeLength="3.84" timeLoss="0.63" maxSpeed="1.14"/>
        <ride waitingTime="732.00" vehicle="taxi92" depart="31816.00" arrival="32872.00" arrivalPos="15.00" duration="1056.00" routeLength="17524.40" timeLoss="96.63"/>
        <walk depart="32872.00" departPos="15.00" arrival="33037.00" arrivalPos="1.00" duration="165.00" routeLength="212.89" timeLoss="-21.86" maxSpeed="1.14"/>
    </personinfo>
    <personinfo id="d144" depart="32585.92" type="DEFAULT_PEDTYPE">
        <walk depart="32586.00" departPos="7.19" arrival="32593.00" arrivalPos="15.00" duration="7.00" routeLength="7.81" timeLoss="1.27" maxSpeed="1.36"/>
        <ride waitingTime="267.00" vehicle="taxi47" depart="32860.00" arrival="33001.00" arrivalPos="53.58" duration="141.00" routeLength="1639.99" timeLoss="19.30"/>
        <walk depart="33001.00" departPos="53.58" arrival="33049.00" arrivalPos="70.72" duration="48.00" routeLength="61.37" timeLoss="2.99" maxSpeed="1.36"/>
    </personinfo>
    <personinfo id="d153" depart="32072.04" type="DEFAULT_PEDTYPE">
        <walk depart="32073.00" departPos="7.79" arrival="32079.00" arrivalPos="15.00" duration="6.00" routeLength="7.21" timeLoss="0.60" maxSpeed="1.33"/>
        <ride waitingTime="180.00" vehicle="taxi38" depart="32259.00" arrival="32712.00" arrivalPos="73.53" duration="453.00" routeLength="3624.36" timeLoss="100.45"/>
        <walk depart="32712.00" departPos="73.53" arrival="33080.00" arrivalPos="62.03" duration="368.00" routeLength="460.44" timeLoss="22.85" maxSpeed="1.33"/>
    </personinfo>
    <personinfo id="d38" depart="32263.84" type="DEFAULT_PEDTYPE">
        <walk depart="32264.00" departPos="22.27" arrival="32271.00" arrivalPos="15.00" duration="7.00" routeLength="7.27" timeLoss="1.43" maxSpeed="1.31"/>
        <ride waitingTime="49.00" vehicle="taxi54" depart="32320.00" arrival="32914.00" arrivalPos="15.00" duration="594.00" routeLength="10559.85" timeLoss="70.16"/>
        <walk depart="32914.00" departPos="15.00" arrival="33087.00" arrivalPos="237.62" duration="173.00" routeLength="208.41" timeLoss="13.41" maxSpeed="1.31"/>
    </personinfo>
    <personinfo id="th145" depart="32561.15" type="DEFAULT_PEDTYPE">
        <walk depart="32562.00" departPos="0.89" arrival="32873.00" arrivalPos="7.77" duration="311.00" routeLength="480.04" timeLoss="-10.87" maxSpeed="1.49"/>
        <ride waitingTime="155.00" vehicle="taxi36" depart="33028.00" arrival="33149.00" arrivalPos="20.00" duration="121.00" routeLength="1191.78" timeLoss="28.20"/>