<?xml version="1.0" encoding="UTF-8"?>

<!-- generated by Eclipse SUMO sumo Version 1.12.0
<configuration xmlns:xsi="http://www.w3.org/2001/XMLSchema-instance" xsi:noNamespaceSchemaLocation="http://sumo.dlr.de/xsd/sumoConfiguration.xsd">

    <input>
        <net-file value="D:\Dokumente\sumo\maloja\simple.net.xml"/>
        <route-files value="D:\Dokumente\sumo\maloja\09_daytrips\persontrips_maloja_daytrips_resolved_offseason_taxi_w10.rou.xml,D:\Dokumente\sumo\maloja\11_hotel\persontrips_maloja_hotel_resolved_offseason_taxi_w10.rou.xml,D:\Dokumente\sumo\maloja\12_non_hotel\persontrips_maloja_non_hotel_resolved_offseason_taxi_w10.rou.xml,D:\Dokumente\sumo\maloja\13_private\persontrips_maloja_private_resolved_offseason_taxi_w10.rou.xml"/>
        <additional-files value="D:\Dokumente\sumo\maloja\03_bus\virtualstop.add.xml,D:\Dokumente\sumo\maloja\03_bus\03_November\gtfs_pt_stops.add.xml,drt_fleet.xml"/>
    </input>

    <output>
        <tripinfo-output value="tripinfos_drt.xml"/>
        <tripinfo-output.write-unfinished value="true"/>
        <stop-output value="stopinfos_drt.xml"/>
        <statistic-output value="stats_drt.xml"/>
    </output>

    <time>
        <begin value="20520"/>
        <end value="77400"/>
    </time>

    <routing>
        <routing-algorithm value="CH"/>
        <persontrip.transfer.taxi-walk value="ptStops"/>
        <persontrip.transfer.walk-taxi value="ptStops"/>
    </routing>

    <report>
        <verbose value="true"/>
        <log value="simulation.log.txt"/>
        <error-log value="sumo_error.log"/>
        <duration-log.statistics value="true"/>
    </report>

    <taxi_device>
        <device.taxi.dispatch-algorithm value="traci"/>
    </taxi_device>

    <traci_server>
        <remote-port value="55392"/>
    </traci_server>

</configuration>
-->

<tripinfos xmlns:xsi="http://www.w3.org/2001/XMLSchema-instance" xsi:noNamespaceSchemaLocation="http://sumo.dlr.de/xsd/tripinfo_file.xsd">
    <personinfo id="d92" depart="29122.82" type="DEFAULT_PEDTYPE">
        <walk depart="29123.00" departPos="8.07" arrival="29129.00" arrivalPos="15.00" duration="6.00" routeLength="6.93" timeLoss="1.55" maxSpeed="1.56"/>
        <ride waitingTime="40.00" vehicle="taxi90" depart="29169.00" arrival="29567.00" arrivalPos="6.62" duration="398.00" routeLength="6656.83" timeLoss="42.69"/>
        <walk depart="29567.00" departPos="6.62" arrival="29597.00" arrivalPos="0.67" duration="30.00" routeLength="41.00" timeLoss="3.68" maxSpeed="1.56"/>
    </personinfo>
    <personinfo id="d89" depart="29197.95" type="DEFAULT_PEDTYPE">
        <walk depart="29198.00" departPos="25.06" arrival="29206.00" arrivalPos="15.00" duration="8.00" routeLength="10.06" timeLoss="1.50" maxSpeed="1.55"/>
        <ride waitingTime="51.00" vehicle="taxi81" depart="29257.00" arrival="29671.00" arrivalPos="516.88" duration="414.00" routeLength="7107.84" timeLoss="48.44"/>
        <walk depart="29671.00" departPos="516.88" arrival="29702.00" arrivalPos="23.98" duration="31.00" routeLength="45.61" timeLoss="1.53" maxSpeed="1.55"/>
    </personinfo>
    <personinfo id="tp122" depart="28979.52" type="DEFAULT_PEDTYPE">
        <walk depart="28980.00" departPos="32.90" arrival="28991.00" arrivalPos="18.71" duration="11.00" routeLength="14.19" timeLoss="1.50" maxSpeed="1.49"/>
        <ride waitingTime="61.00" vehicle="taxi73" depart="29052.00" arrival="29423.00" arrivalPos="38.05" duration="371.00" routeLength="3970.50" timeLoss="37.44"/>
        <walk depart="29423.00" departPos="38.05" arrival="29816.00" arrivalPos="105.14" duration="393.00" routeLength="545.83" timeLoss="27.75" maxSpeed="1.49"/>
    </personinfo>
    <personinfo id="th83" depart="29197.95" type="DEFAULT_PEDTYPE">
        <walk depart="29198.00" departPos="102.02" arrival="29314.00" arrivalPos="23.94" duration="116.00" routeLength="162.42" timeLoss="-6.23" maxSpeed="1.33"/>
        <ride waitingTime="61.00" vehicle="taxi11" depart="29375.00" arrival="29833.00" arrivalPos="7.50" duration="458.00" routeLength="8596.34" timeLoss="47.93"/>
        <walk depart="29833.00" departPos="7.50" arrival="29841.00" arrivalPos="1.99" duration="8.00" routeLength="12.70" timeLoss="-1.56" maxSpeed="1.33"/>
    </personinfo>
    <personinfo id="d56" depart="28921.78" type="DEFAULT_PEDTYPE">
        <walk depart="28922.00" departPos="5.38" arrival="28931.00" arrivalPos="15.00" duration="9.00" routeLength="9.62" timeLoss="1.45" maxSpeed="1.27"/>
        <ride waitingTime="59.00" vehicle="taxi45" depart="28990.00" arrival="29560.00" arrivalPos="7.50" duration="570.00" routeLength="10563.18" timeLoss="66.62"/>
        <walk depart="29560.00" departPos="7.50" arrival="29929.00" arrivalPos="62.06" duration="369.00" routeLength="457.72" timeLoss="9.72" maxSpeed="1.27"/>
    </personinfo>
    <personinfo id="d128" depart="28979.52" type="DEFAULT_PEDTYPE">
        <walk depart="28980.00" departPos="0.86" arrival="28989.00" arrivalPos="10.00" duration="9.00" routeLength="9.14" timeLoss="1.60" maxSpeed="1.23"/>
        <ride waitingTime="398.00" vehicle="taxi55" depart="29387.00" arrival="29572.00" arrivalPos="38.05" duration="185.00" routeLength="2618.88" timeLoss="26.80"/>
        <walk depart="29572.00" departPos="38.05" arrival="30045.00" arrivalPos="105.14" duration="473.00" routeLength="545.83" timeLoss="30.85" maxSpeed="1.23"/>
    </personinfo>
    <personinfo id="th122" depart="28979.52" type="DEFAULT_PEDTYPE">
        <walk depart="28980.00" departPos="25.54" arrival="28986.00" arrivalPos="18.71" duration="6.00" routeLength="6.83" timeLoss="0.97" maxSpeed="1.36"/>
        <ride waitingTime="29.00" vehicle="taxi55" depart="29015.00" arrival="29572.00" arrivalPos="38.05" duration="557.00" routeLength="5691.85" timeLoss="73.60"/>
        <walk depart="29572.00" departPos="38.05" arrival="30045.00" arrivalPos="105.14" duration="473.00" routeLength="545.83" timeLoss="71.25" maxSpeed="1.36"/>
    </personinfo>
    <personinfo id="tn81" depart="29197.95" type="DEFAULT_PEDTYPE">
        <walk depart="29198.00" departPos="19.67" arrival="29394.00" arrivalPos="23.94" duration="196.00" routeLength="244.77" timeLoss="-1.14" maxSpeed="1.24"/>
        <ride waitingTime="512.00" vehicle="taxi90" depart="29906.00" arrival="30039.00" arrivalPos="15.00" duration="133.00" routeLength="1689.73" timeLoss="20.27"/>
        <walk depart="30039.00" departPos="15.00" arrival="30156.00" arrivalPos="0.24" duration="117.00" routeLength="133.26" timeLoss="9.67" maxSpeed="1.24"/>
    </personinfo>
    <personinfo id="tp83" depart="29197.95" type="DEFAULT_PEDTYPE">
        <walk depart="29198.00" departPos="6.21" arrival="29395.00" arrivalPos="23.94" duration="197.00" routeLength="258.23" timeLoss="17.27" maxSpeed="1.44"/>
        <ride waitingTime="318.00" vehicle="taxi73" depart="29713.00" arrival="30171.00" arrivalPos="7.50" duration="458.00" routeLength="8597.14" timeLoss="55.47"/>
        <walk depart="30171.00" departPos="7.50" arrival="30179.00" arrivalPos="1.99" duration="8.00" routeLength="12.70" timeLoss="-0.84" maxSpeed="1.44"/>
    </personinfo>
    <personinfo id="tn85" depart="28889.60" type="DEFAULT_PEDTYPE">
        <walk depart="28890.00" departPos="93.30" arrival="29396.00" arrivalPos="553.86" duration="506.00" routeLength="618.12" timeLoss="53.12" maxSpeed="1.36"/>
        <ride waitingTime="560.00" vehicle="taxi81" depart="29956.00" arrival="30182.00" arrivalPos="15.00" duration="226.00" routeLength="3001.61" timeLoss="34.59"/>
        <walk depart="30182.00" departPos="15.00" arrival="30191.00" arrivalPos="25.50" duration="9.00" routeLength="10.50" timeLoss="1.31" maxSpeed="1.36"/>
    </personinfo>
    <personinfo id="d136" depart="29903.27" type="DEFAULT_PEDTYPE">
        <walk depart="29904.00" departPos="18.38" arrival="29907.00" arrivalPos="15.00" duration="3.00" routeLength="3.38" timeLoss="0.65" maxSpeed="1.44"/>
        <ride waitingTime="44.00" vehicle="taxi72" depart="29951.00" arrival="30204.00" arrivalPos="20.48" duration="253.00" routeLength="3425.92" timeLoss="28.75"/>
        <walk depart="30204.00" departPos="20.48" arrival="30424.00" arrivalPos="1.56" duration="220.00" routeLength="302.54" timeLoss="9.42" maxSpeed="1.44"/>
    </personinfo>
    <personinfo id="th138" depart="30205.95" type="DEFAULT_PEDTYPE">
        <walk depart="30206.00" departPos="3.16" arrival="30214.00" arrivalPos="5.29" duration="8.00" routeLength="28.37" timeLoss="-14.29" maxSpeed="1.27"/>
        <ride waitingTime="123.00" vehicle="taxi55" depart="30337.00" arrival="30664.00" arrivalPos="10.00" duration="327.00" routeLength="4778.99" timeLoss="67.25"/>
        <walk depart="30664.00" departPos="10.00" arrival="30673.00" arrivalPos="20.38" duration="9.00" routeLength="10.38" timeLoss="0.84" maxSpeed="1.27"/>
    </personinfo>
    <personinfo id="tp138" depart="30205.95" type="DEFAULT_PEDTYPE">
        <walk depart="30206.00" departPos="0.81" arrival="30212.00" arrivalPos="5.29" duration="6.00" routeLength="26.02" timeLoss="-15.60" maxSpeed="1.20"/>
        <ride waitingTime="108.00" vehicle="taxi55" depart="30320.00" arrival="30664.00" arrivalPos="10.00" duration="344.00" routeLength="4812.90" timeLoss="78.27"/>
        <walk depart="30664.00" departPos="10.00" arrival="30674.00" arrivalPos="20.38" duration="10.00" routeLength="10.38" timeLoss="1.38" maxSpeed="1.20"/>
    </personinfo>
    <personinfo id="th129" depart="29903.27" type="DEFAULT_PEDTYPE">
        <walk depart="29904.00" departPos="19.67" arrival="30262.00" arrivalPos="184.55" duration="358.00" routeLength="456.11" timeLoss="36.87" maxSpeed="1.42"/>
        <ride waitingTime="169.00" vehicle="taxi55" depart="30431.00" arrival="30699.00" arrivalPos="15.00" duration="268.00" routeLength="3310.20" timeLoss="65.85"/>
        <walk depart="30699.00" departPos="15.00" arrival="30710.00" arrivalPos="1.24" duration="11.00" routeLength="13.76" timeLoss="1.31" maxSpeed="1.42"/>
    </personinfo>
    <personinfo id="d145" depart="30205.95" type="DEFAULT_PEDTYPE">
        <walk depart="30206.00" departPos="11.70" arrival="30209.00" arrivalPos="15.00" duration="3.00" routeLength="3.30" timeLoss="0.89" maxSpeed="1.56"/>
        <ride waitingTime="297.00" vehicle="taxi11" depart="30506.00" arrival="30638.00" arrivalPos="46.08" duration="132.00" routeLength="1633.69" timeLoss="19.33"/>
        <walk depart="30638.00" departPos="46.08" arrival="30711.00" arrivalPos="18.64" duration="73.00" routeLength="51.09" timeLoss="40.35" maxSpeed="1.56"/>
    </personinfo>
    <personinfo id="tp129" depart="29903.27" type="DEFAULT_PEDTYPE">
        <walk depart="29904.00" departPos="38.67" arrival="30318.00" arrivalPos="184.55" duration="414.00" routeLength="475.11" timeLoss="44.07" maxSpeed="1.28"/>
        <ride waitingTime="164.00" vehicle="taxi55" depart="30482.00" arrival="30699.00" arrivalPos="15.00" duration="217.00" routeLength="2735.89" timeLoss="43.31"/>
        <walk depart="30699.00" departPos="15.00" arrival="30712.00" arrivalPos="1.24" duration="13.00" routeLength="13.76" timeLoss="2.29" maxSpeed="1.28"/>
    </personinfo>
    <personinfo id="d66" depart="30056.12" type="DEFAULT_PEDTYPE">
        <walk depart="30057.00" departPos="0.73" arrival="30070.00" arrivalPos="15.00" duration="13.00" routeLength="14.27" timeLoss="1.61" maxSpeed="1.25"/>
        <ride waitingTime="205.00" vehicle="taxi81" depart="30275.00" arrival="30895.00" arrivalPos="27.49" duration="620.00" routeLength="11139.25" timeLoss="66.06"/>
        <walk depart="30895.00" departPos="27.49" arrival="30932.00" arrivalPos="14.16" duration="37.00" routeLength="44.87" timeLoss="1.16" maxSpeed="1.25"/>
    </personinfo>
    <personinfo id="d115" depart="30649.67" type="DEFAULT_PEDTYPE">
        <walk depart="30650.00" departPos="11.09" arrival="30654.00" arrivalPos="15.00" duration="4.00" routeLength="3.91" timeLoss="1.12" maxSpeed="1.35"/>
        <ride waitingTime="132.00" vehicle="taxi55" depart="30786.00" arrival="30910.00" arrivalPos="9.76" duration="124.00" routeLength="1525.90" timeLoss="22.84"/>
        <walk depart="30910.00" departPos="9.76" arrival="30961.00" arrivalPos="27.61" duration="51.00" routeLength="70.61" timeLoss="-1.15" maxSpeed="1.35"/>
    </personinfo>
    <personinfo id="th32" depart="28958.69" type="DEFAULT_PEDTYPE">
        <walk depart="28959.00" departPos="28.17" arrival="28970.00" arrivalPos="15.53" duration="11.00" routeLength="12.64" timeLoss="1.13" maxSpeed="1.28"/>
        <ride waitingTime="914.00" vehicle="taxi45" depart="29884.00" arrival="31094.00" arrivalPos="4.97" duration="1210.00" routeLength="24304.51" timeLoss="71.03"/>
        <walk depart="31094.00" departPos="4.97" arrival="31114.00" arrivalPos="24.95" duration="20.00" routeLength="40.59" timeLoss="-11.72" maxSpeed="1.28"/>
    </personinfo>
    <personinfo id="tp32" depart="28958.69" type="DEFAULT_PEDTYPE">
        <walk depart="28959.00" departPos="23.04" arrival="28966.00" arrivalPos="15.53" duration="7.00" routeLength="7.51" timeLoss="1.65" maxSpeed="1.40"/>
        <ride waitingTime="918.00" vehicle="taxi45" depart="29884.00" arrival="31094.00" arrivalPos="4.97" duration="1210.00" routeLength="24304.51" timeLoss="71.03"/>
        <walk depart="31094.00" departPos="4.97" arrival="31115.00" arrivalPos="24.95" duration="21.00" routeLength="40.59" timeLoss="-7.94" maxSpeed="1.40"/>
    </personinfo>
    <personinfo id="tn32" depart="28958.69" type="DEFAULT_PEDTYPE">
        <walk depart="28959.00" departPos="21.51" arrival="28964.00" arrivalPos="15.53" duration="5.00" routeLength="5.98" timeLoss="0.95" maxSpeed="1.48"/>
        <ride waitingTime="920.00" vehicle="taxi45" depart="29884.00" arrival="31094.00" arrivalPos="4.97" duration="1210.00" routeLength="24304.51" timeLoss="71.03"/>
        <walk depart="31094.00" departPos="4.97" arrival="31119.00" arrivalPos="19.95" duration="25.00" routeLength="45.59" timeLoss="-5.87" maxSpeed="1.48"/>
    </personinfo>
    <personinfo id="th26" depart="29784.39" type="DEFAULT_PEDTYPE">
        <walk depart="29785.00" departPos="83.54" arrival="30037.00" arrivalPos="2.55" duration="252.00" routeLength="367.78" timeLoss="19.54" maxSpeed="1.58"/>
        <ride waitingTime="250.00" vehicle="taxi73" depart="30287.00" arrival="30560.00" arrivalPos="10.67" duration="273.00" routeLength="4463.68" timeLoss="38.21"/>
        <walk depart="30560.00" departPos="10.67" arrival="31189.00" arrivalPos="36.60" duration="629.00" routeLength="946.46" timeLoss="30.78" maxSpeed="1.58"/>
    </personinfo>
    <personinfo id="tn26" depart="29784.39" type="DEFAULT_PEDTYPE">
        <walk depart="29785.00" departPos="108.62" arrival="30039.00" arrivalPos="2.55" duration="254.00" routeLength="392.87" timeLoss="29.36" maxSpeed="1.75"/>
        <ride waitingTime="248.00" vehicle="taxi73" depart="30287.00" arrival="30560.00" arrivalPos="10.67" duration="273.00" routeLength="4463.68" timeLoss="38.21"/>
        <walk depart="30560.00" departPos="10.67" arrival="31189.00" arrivalPos="36.60" duration="629.00" routeLength="946.46" timeLoss="87.80" maxSpeed="1.75"/>
    </personinfo>
    <personinfo id="tp26" depart="29784.39" type="DEFAULT_PEDTYPE">
        <walk depart="29785.00" departPos="147.56" arrival="30112.00" arrivalPos="2.55" duration="327.00" routeLength="431.80" timeLoss="25.83" maxSpeed="1.43"/>
        <ride waitingTime="175.00" vehicle="taxi73" depart="30287.00" arrival="30560.00" arrivalPos="10.67" duration="273.00" routeLength="4463.68" timeLoss="38.21"/>
        <walk depart="30560.00" departPos="10.67" arrival="31256.00" arrivalPos="36.60" duration="696.00" routeLength="946.46" timeLoss="35.86" maxSpeed="1.43"/>
    </personinfo>
    <personinfo id="tn48" depart="30772.95" type="DEFAULT_PEDTYPE">
        <walk depart="30773.00" departPos="9.16" arrival="30841.00" arrivalPos="10.67" duration="68.00" routeLength="64.23" timeLoss="9.70" maxSpeed="1.10"/>
        <ride waitingTime="19.00" vehicle="taxi73" depart="30860.00" arrival="31253.00" arrivalPos="10.00" duration="393.00" routeLength="6721.42" timeLoss="42.92"/>
        <walk depart="31253.00" departPos="10.00" arrival="31262.00" arrivalPos="1.20" duration="9.00" routeLength="8.80" timeLoss="1.01" maxSpeed="1.10"/>
    </personinfo>
    <personinfo id="tn68" depart="30891.43" type="DEFAULT_PEDTYPE">
        <walk depart="30892.00" departPos="0.06" arrival="30900.00" arrivalPos="6.12" duration="8.00" routeLength="8.86" timeLoss="1.40" maxSpeed="1.34"/>
        <ride waitingTime="268.00" vehicle="taxi55" depart="31168.00" arrival="31317.00" arrivalPos="102.22" duration="149.00" routeLength="2587.74" timeLoss="27.03"/>
        <walk depart="31317.00" departPos="102.22" arrival="31373.00" arrivalPos="0.15" duration="56.00" routeLength="63.58" timeLoss="8.62" maxSpeed="1.34"/>
    </personinfo>
    <personinfo id="th109" depart="30649.67" type="DEFAULT_PEDTYPE">
        <walk depart="30650.00" departPos="10.29" arrival="30890.00" arrivalPos="5.29" duration="240.00" routeLength="336.37" timeLoss="-3.77" maxSpeed="1.38"/>
        <ride waitingTime="267.00" vehicle="taxi55" depart="31157.00" arrival="31440.00" arrivalPos="7.50" duration="283.00" routeLength="3838.71" timeLoss="53.66"/>
        <walk depart="31440.00" departPos="7.50" arrival="31483.00" arrivalPos="14.92" duration="43.00" routeLength="56.05" timeLoss="2.38" maxSpeed="1.38"/>
    </personinfo>
    <personinfo id="tp109" depart="30649.67" type="DEFAULT_PEDTYPE">
        <walk depart="30650.00" departPos="4.26" arrival="30895.00" arrivalPos="5.29" duration="245.00" routeLength="342.41" timeLoss="-5.28" maxSpeed="1.37"/>
        <ride waitingTime="262.00" vehicle="taxi55" depart="31157.00" arrival="31440.00" arrivalPos="7.50" duration="283.00" routeLength="3838.71" timeLoss="53.66"/>
        <walk depart="31440.00" departPos="7.50" arrival="31484.00" arrivalPos="14.92" duration="44.00" routeLength="56.05" timeLoss="3.03" maxSpeed="1.37"/>
    </personinfo>
    <personinfo id="tn64" depart="29217.29" type="DEFAULT_PEDTYPE">
        <walk depart="29218.00" departPos="2.46" arrival="29819.00" arrivalPos="18.71" duration="601.00" routeLength="709.34" timeLoss="39.78" maxSpeed="1.26"/>
        <ride waitingTime="644.00" vehicle="taxi90" depart="30463.00" arrival="31288.00" arrivalPos="4.99" duration="825.00" routeLength="12627.69" timeLoss="88.01"/>
        <walk depart="31288.00" departPos="4.99" arrival="31878.00" arrivalPos="108.49" duration="590.00" routeLength="703.52" timeLoss="33.39" maxSpeed="1.26"/>
    </personinfo>
    <personinfo id="d57" depart="30960.73" type="DEFAULT_PEDTYPE">
        <walk depart="30961.00" departPos="26.49" arrival="30970.00" arrivalPos="15.00" duration="9.00" routeLength="11.49" timeLoss="1.24" maxSpeed="1.48"/>
        <ride waitingTime="402.00" vehicle="taxi73" depart="31372.00" arrival="31993.00" arrivalPos="7.50" duration="621.00" routeLength="10930.90" timeLoss="86.10"/>
        <walk depart="31993.00" departPos="7.50" arrival="32004.00" arrivalPos="21.47" duration="11.00" routeLength="13.97" timeLoss="1.56" maxSpeed="1.48"/>
    </personinfo>
    <personinfo id="d29" depart="29784.39" type="DEFAULT_PEDTYPE">
        <walk depart="29785.00" departPos="8.78" arrival="29791.00" arrivalPos="15.00" duration="6.00" routeLength="6.22" timeLoss="1.51" maxSpeed="1.38"/>
        <ride waitingTime="686.00" vehicle="taxi11" depart="30477.00" arrival="31982.00" arrivalPos="7.50" duration="1505.00" routeLength="26536.91" timeLoss="120.74"/>
        <walk depart="31982.00" departPos="7.50" arrival="32006.00" arrivalPos="22.78" duration="24.00" routeLength="40.70" timeLoss="-5.43" maxSpeed="1.38"/>
    </personinfo>
    <personinfo id="th156" depart="31417.42" type="DEFAULT_PEDTYPE">
        <walk depart="31418.00" departPos="16.30" arrival="31435.00" arrivalPos="7.50" duration="17.00" routeLength="34.69" timeLoss="-4.20" maxSpeed="1.64"/>
        <ride waitingTime="300.00" vehicle="taxi56" depart="31735.00" arrival="32126.00" arrivalPos="15.00" duration="391.00" routeLength="5642.77" timeLoss="52.15"/>
        <walk depart="32126.00" departPos="15.00" arrival="32128.00" arrivalPos="13.22" duration="2.00" routeLength="1.78" timeLoss="0.91" maxSpeed="1.64"/>
    </personinfo>
    <personinfo id="tp156" depart="31417.42" type="DEFAULT_PEDTYPE">
        <walk depart="31418.00" departPos="8.01" arrival="31432.00" arrivalPos="7.50" duration="14.00" routeLength="26.40" timeLoss="-7.15" maxSpeed="1.25"/>
        <ride waitingTime="151.00" vehicle="taxi56" depart="31583.00" arrival="32126.00" arrivalPos="15.00" duration="543.00" routeLength="7061.47" timeLoss="72.74"/>
        <walk depart="32126.00" departPos="15.00" arrival="32129.00" arrivalPos="13.22" duration="3.00" routeLength="1.78" timeLoss="1.57" maxSpeed="1.25"/>
    </personinfo>
    <personinfo id="tp153" depart="30962.87" type="DEFAULT_PEDTYPE">
        <walk depart="30963.00" departPos="36.76" arrival="31479.00" arrivalPos="184.55" duration="516.00" routeLength="678.51" timeLoss="34.38" maxSpeed="1.41"/>
        <ride waitingTime="457.00" vehicle="taxi56" depart="31936.00" arrival="32126.00" arrivalPos="15.00" duration="190.00" routeLength="2628.43" timeLoss="26.98"/>
        <walk depart="32126.00" departPos="15.00" arrival="32138.00" arrivalPos="0.17" duration="12.00" routeLength="14.83" timeLoss="1.47" maxSpeed="1.41"/>
    </personinfo>
    <personinfo id="th153" depart="30962.87" type="DEFAULT_PEDTYPE">
        <walk depart="30963.00" departPos="92.38" arrival="31569.00" arrivalPos="184.55" duration="606.00" routeLength="734.13" timeLoss="41.66" maxSpeed="1.30"/>
        <ride waitingTime="367.00" vehicle="taxi56" depart="31936.00" arrival="32127.00" arrivalPos="15.00" duration="191.00" routeLength="2628.43" timeLoss="26.98"/>
        <walk depart="32127.00" departPos="15.00" arrival="32141.00" arrivalPos="0.17" duration="14.00" routeLength="14.83" timeLoss="2.60" maxSpeed="1.30"/>
    </personinfo>
    <personinfo id="d141" depart="31854.41" type="DEFAULT_PEDTYPE">
        <walk depart="31855.00" departPos="8.64" arrival="31856.00" arrivalPos="10.00" duration="1.00" routeLength="1.36" timeLoss="0.08" maxSpeed="1.48"/>
        <ride waitingTime="93.00" vehicle="taxi55" depart="31949.00" arrival="32102.00" arrivalPos="26.09" duration="153.00" routeLength="1864.75" timeLoss="26.90"/>
        <walk depart="32102.00" departPos="26.09" arrival="32162.00" arrivalPos="36.77" duration="60.00" routeLength="83.57" timeLoss="3.56" maxSpeed="1.48"/>
    </personinfo>
    <personinfo id="d35" depart="31079.74" type="DEFAULT_PEDTYPE">
        <walk depart="31080.00" departPos="27.95" arrival="31091.00" arrivalPos="15.00" duration="11.00" routeLength="12.95" timeLoss="1.40" maxSpeed="1.35"/>
        <ride waitingTime="61.00" vehicle="taxi63" depart="31152.00" arrival="32036.00" arrivalPos="4.18" duration="884.00" routeLength="16653.13" timeLoss="70.28"/>
        <walk depart="32036.00" departPos="4.18" arrival="32167.00" arrivalPos="1.00" duration="131.00" routeLength="179.38" timeLoss="-1.96" maxSpeed="1.35"/>
    </personinfo>
    <personinfo id="tp89" depart="31346.34" type="DEFAULT_PEDTYPE">
        <walk depart="31347.00" departPos="2.89" arrival="31486.00" arrivalPos="9.76" duration="139.00" routeLength="175.95" timeLoss="5.79" maxSpeed="1.32"/>
        <ride waitingTime="119.00" vehicle="taxi83" depart="31605.00" arrival="32148.00" arrivalPos="27.49" duration="543.00" routeLength="9558.93" timeLoss="64.54"/>
        <walk depart="32148.00" departPos="27.49" arrival="32182.00" arrivalPos="12.82" duration="34.00" routeLength="43.53" timeLoss="1.05" maxSpeed="1.32"/>
    </personinfo>
    <personinfo id="th89" depart="31346.34" type="DEFAULT_PEDTYPE">
        <walk depart="31347.00" departPos="71.86" arrival="31428.00" arrivalPos="9.76" duration="81.00" routeLength="106.98" timeLoss="0.83" maxSpeed="1.33"/>
        <ride waitingTime="329.00" vehicle="taxi18" depart="31757.00" arrival="32305.00" arrivalPos="27.49" duration="548.00" routeLength="9558.13" timeLoss="62.52"/>
        <walk depart="32305.00" departPos="27.49" arrival="32339.00" arrivalPos="12.82" duration="34.00" routeLength="43.53" timeLoss="1.38" maxSpeed="1.33"/>
    </personinfo>
    <personinfo id="th65" depart="29217.29" type="DEFAULT_PEDTYPE">
        <walk depart="29218.00" departPos="3.99" arrival="29701.00" arrivalPos="18.71" duration="483.00" routeLength="707.82" timeLoss="16.58" maxSpeed="1.52"/>
        <ride waitingTime="758.00" vehicle="taxi90" depart="30459.00" arrival="31860.00" arrivalPos="93.33" duration="1401.00" routeLength="22072.93" timeLoss="135.85"/>
        <walk depart="31860.00" departPos="93.33" arrival="32542.00" arrivalPos="16.12" duration="682.00" routeLength="939.66" timeLoss="62.80" maxSpeed="1.52"/>
    </personinfo>
    <personinfo id="th146" depart="32072.04" type="DEFAULT_PEDTYPE">
        <walk depart="32073.00" departPos="196.79" arrival="32232.00" arrivalPos="7.50" duration="159.00" routeLength="189.29" timeLoss="17.03" maxSpeed="1.33"/>
        <ride waitingTime="116.00" vehicle="taxi74" depart="32348.00" arrival="32559.00" arrivalPos="15.00" duration="211.00" routeLength="2285.31" timeLoss="25.91"/>
        <walk depart="32559.00" departPos="15.00" arrival="32561.00" arrivalPos="12.94" duration="2.00" routeLength="2.06" timeLoss="0.46" maxSpeed="1.33"/>
    </personinfo>
    <personinfo id="tp146" depart="32072.04" type="DEFAULT_PEDTYPE">
        <walk depart="32073.00" departPos="27.74" arrival="32093.00" arrivalPos="7.50" duration="20.00" routeLength="20.24" timeLoss="1.87" maxSpeed="1.12"/>
        <ride waitingTime="177.00" vehicle="taxi74" depart="32270.00" arrival="32559.00" arrivalPos="15.00" duration="289.00" routeLength="2770.83" timeLoss="41.55"/>
        <walk depart="32559.00" departPos="15.00" arrival="32562.00" arrivalPos="12.94" duration="3.00" routeLength="2.06" timeLoss="1.16" maxSpeed="1.12"/>
    </personinfo>
    <personinfo id="d135" depart="32308.99" type="DEFAULT_PEDTYPE">
        <walk depart="32309.00" departPos="16.94" arrival="32311.00" arrivalPos="15.00" duration="2.00" routeLength="1.94" timeLoss="0.51" maxSpeed="1.30"/>
        <ride waitingTime="40.00" vehicle="taxi54" depart="32351.00" arrival="32472.00" arrivalPos="87.83" duration="121.00" routeLength="1224.60" timeLoss="23.94"/>
        <walk depart="32472.00" departPos="87.83" arrival="32648.00" arrivalPos="46.41" duration="176.00" routeLength="260.17" timeLoss="-23.64" maxSpeed="1.30"/>
    </personinfo>
    <personinfo id="tp65" depart="29217.29" type="DEFAULT_PEDTYPE">
        <walk depart="29218.00" departPos="3.52" arrival="29818.00" arrivalPos="18.71" duration="600.00" routeLength="708.28" timeLoss="23.06" maxSpeed="1.23"/>
        <ride waitingTime="645.00" vehicle="taxi90" depart="30463.00" arrival="31860.00" arrivalPos="93.33" duration="1397.00" routeLength="22069.59" timeLoss="133.44"/>
        <walk depart="31860.00" departPos="93.33" arrival="32698.00" arrivalPos="16.12" duration="838.00" routeLength="939.66" timeLoss="72.58" maxSpeed="1.23"/>
    </personinfo>
    <personinfo id="d144" depart="32585.92" type="DEFAULT_PEDTYPE">
        <walk depart="32586.00" departPos="16.21" arrival="32587.00" arrivalPos="15.00" duration="1.00" routeLength="1.21" timeLoss="0.18" maxSpeed="1.47"/>
        <ride waitingTime="62.00" vehicle="taxi9" depart="32649.00" arrival="32796.00" arrivalPos="46.08" duration="147.00" routeLength="1632.89" timeLoss="25.61"/>
        <walk depart="32796.00" departPos="46.08" arrival="32835.00" arrivalPos="70.72" duration="39.00" routeLength="53.87" timeLoss="2.41" maxSpeed="1.47"/>
    </personinfo>
    <personinfo id="tp136" depart="32421.41" type="DEFAULT_PEDTYPE">
        <walk depart="32422.00" departPos="1.47" arrival="32627.00" arrivalPos="37.39" duration="205.00" routeLength="264.76" timeLoss="17.26" maxSpeed="1.41"/>
        <ride waitingTime="46.00" vehicle="taxi29" depart="32673.00" arrival="32848.00" arrivalPos="15.00" duration="175.00" routeLength="2119.99" timeLoss="24.73"/>
        <walk depart="32848.00" departPos="15.00" arrival="32853.00" arrivalPos="9.21" duration="5.00" routeLength="5.79" timeLoss="0.89" maxSpeed="1.41"/>
    </personinfo>
    <personinfo id="d100" depart="32367.26" type="DEFAULT_PEDTYPE">
        <walk depart="32368.00" departPos="0.73" arrival="32380.00" arrivalPos="15.00" duration="12.00" routeLength="14.27" timeLoss="1.32" maxSpeed="1.34"/>
        <ride waitingTime="39.00" vehicle="taxi56" depart="32419.00" arrival="32841.00" arrivalPos="6.62" duration="422.00" routeLength="6668.93" timeLoss="43.69"/>
        <walk depart="32841.00" departPos="6.62" arrival="32901.00" arrivalPos="19.40" duration="60.00" routeLength="84.80" timeLoss="-3.51" maxSpeed="1.34"/>
    </personinfo>
    <personinfo id="d112" depart="32394.65" type="DEFAULT_PEDTYPE">
        <walk depart="32395.00" departPos="11.31" arrival="32396.00" arrivalPos="10.00" duration="1.00" routeLength="1.31" timeLoss="0.07" maxSpeed="1.41"/>
        <ride waitingTime="227.00" vehicle="taxi54" depart="32623.00" arrival="32833.00" arrivalPos="43.62" duration="210.00" routeLength="2217.53" timeLoss="55.13"/>
        <walk depart="32833.00" departPos="43.62" arrival="32952.00" arrivalPos="2.94" duration="119.00" routeLength="154.74" timeLoss="9.28" maxSpeed="1.41"/>
    </personinfo>
    <personinfo id="d153" depart="32072.04" type="DEFAULT_PEDTYPE">
        <walk depart="32073.00" departPos="15.90" arrival="32074.00" arrivalPos="15.00" duration="1.00" routeLength="0.90" timeLoss="0.34" maxSpeed="1.37"/>
        <ride waitingTime="255.00" vehicle="taxi55" depart="32329.00" arrival="32619.00" arrivalPos="66.03" duration="290.00" routeLength="3354.94" timeLoss="66.84"/>
        <walk depart="32619.00" departPos="66.03" arrival="32973.00" arrivalPos="62.03" duration="354.00" routeLength="452.94" timeLoss="23.39" maxSpeed="1.37"/>
    </personinfo>