<?xml version="1.0" encoding="UTF-8"?>

<!-- generated by Eclipse SUMO sumo Version 1.12.0
<configuration xmlns:xsi="http://www.w3.org/2001/XMLSchema-instance" xsi:noNamespaceSchemaLocation="http://sumo.dlr.de/xsd/sumoConfiguration.xsd">

    <input>
        <net-file value="D:\Dokumente\sumo\maloja\simple.net.xml"/>
        <route-files value="D:\Dokumente\sumo\maloja\09_daytrips\persontrips_maloja_daytrips_resolved_offseason_taxi.rou.xml,D:\Dokumente\sumo\maloja\11_hotel\persontrips_maloja_hotel_resolved_offseason_taxi.rou.xml,D:\Dokumente\sumo\maloja\12_non_hotel\persontrips_maloja_non_hotel_resolved_offseason_taxi.rou.xml,D:\Dokumente\sumo\maloja\13_private\persontrips_maloja_private_resolved_offseason_taxi.rou.xml"/>
        <additional-files value="D:\Dokumente\sumo\maloja\03_bus\virtualstop.add.xml,D:\Dokumente\sumo\maloja\03_bus\03_November\gtfs_pt_stops.add.xml,drt_fleet.xml,drt_parking.add.xml,drt_parking_rerouter.add.xml"/>
    </input>

    <output>
        <tripinfo-output value="tripinfos_drt.xml"/>
        <tripinfo-output.write-unfinished value="true"/>
        <stop-output value="stopinfos_drt.xml"/>
        <statistic-output value="stats_drt.xml"/>
    </output>

    <time>
        <begin value="20520"/>
        <end value="77400"/>
    </time>

    <routing>
        <routing-algorithm value="dijkstra"/>
        <persontrip.transfer.taxi-walk value="ptStops"/>
        <persontrip.transfer.walk-taxi value="ptStops"/>
    </routing>

    <report>
        <verbose value="true"/>
        <log value="simulation.log.txt"/>
        <error-log value="sumo_error.log"/>
        <duration-log.statistics value="true"/>
    </report>

    <taxi_device>
        <device.taxi.dispatch-algorithm value="traci"/>
    </taxi_device>

    <traci_server>
        <remote-port value="63676"/>
    </traci_server>

</configuration>
-->

<tripinfos xmlns:xsi="http://www.w3.org/2001/XMLSchema-instance" xsi:noNamespaceSchemaLocation="http://sumo.dlr.de/xsd/tripinfo_file.xsd">
    <personinfo id="d128" depart="28979.52" type="DEFAULT_PEDTYPE">
        <walk depart="28980.00" departPos="15.62" arrival="28984.00" arrivalPos="10.00" duration="4.00" routeLength="5.62" timeLoss="0.39" maxSpeed="1.56"/>
        <ride waitingTime="32.00" vehicle="taxi18" depart="29016.00" arrival="29206.00" arrivalPos="45.55" duration="190.00" routeLength="2626.38" timeLoss="25.91"/>
        <walk depart="29206.00" departPos="45.55" arrival="29587.00" arrivalPos="105.14" duration="381.00" routeLength="553.33" timeLoss="25.44" maxSpeed="1.56"/>
    </personinfo>
    <personinfo id="d92" depart="29122.82" type="DEFAULT_PEDTYPE">
        <walk depart="29123.00" departPos="3.38" arrival="29133.00" arrivalPos="15.00" duration="10.00" routeLength="11.62" timeLoss="1.62" maxSpeed="1.39"/>
        <ride waitingTime="36.00" vehicle="taxi54" depart="29169.00" arrival="29570.00" arrivalPos="13.24" duration="401.00" routeLength="6663.45" timeLoss="42.98"/>
        <walk depart="29570.00" departPos="13.24" arrival="29609.00" arrivalPos="0.67" duration="39.00" routeLength="47.62" timeLoss="4.65" maxSpeed="1.39"/>
    </personinfo>
    <personinfo id="d89" depart="29197.95" type="DEFAULT_PEDTYPE">
        <walk depart="29198.00" departPos="18.69" arrival="29201.00" arrivalPos="15.00" duration="3.00" routeLength="3.69" timeLoss="0.41" maxSpeed="1.42"/>
        <ride waitingTime="56.00" vehicle="taxi45" depart="29257.00" arrival="29652.00" arrivalPos="524.38" duration="395.00" routeLength="7115.34" timeLoss="46.06"/>
        <walk depart="29652.00" departPos="524.38" arrival="29679.00" arrivalPos="23.98" duration="27.00" routeLength="38.11" timeLoss="0.22" maxSpeed="1.42"/>
    </personinfo>
    <personinfo id="th122" depart="28979.52" type="DEFAULT_PEDTYPE">
        <walk depart="28980.00" departPos="29.65" arrival="28991.00" arrivalPos="18.71" duration="11.00" routeLength="10.94" timeLoss="2.42" maxSpeed="1.28"/>
        <ride waitingTime="84.00" vehicle="taxi10" depart="29075.00" arrival="29442.00" arrivalPos="45.55" duration="367.00" routeLength="3978.00" timeLoss="38.14"/>
        <walk depart="29442.00" departPos="45.55" arrival="29905.00" arrivalPos="105.14" duration="463.00" routeLength="553.33" timeLoss="29.05" maxSpeed="1.28"/>
    </personinfo>
    <personinfo id="th83" depart="29197.95" type="DEFAULT_PEDTYPE">
        <walk depart="29198.00" departPos="101.56" arrival="29294.00" arrivalPos="23.94" duration="96.00" routeLength="162.89" timeLoss="-6.18" maxSpeed="1.59"/>
        <ride waitingTime="133.00" vehicle="taxi56" depart="29427.00" arrival="29916.00" arrivalPos="15.00" duration="489.00" routeLength="8604.64" timeLoss="50.97"/>
        <walk depart="29916.00" departPos="15.00" arrival="29928.00" arrivalPos="1.99" duration="12.00" routeLength="20.20" timeLoss="-0.67" maxSpeed="1.59"/>
    </personinfo>
    <personinfo id="tp83" depart="29197.95" type="DEFAULT_PEDTYPE">
        <walk depart="29198.00" departPos="120.67" arrival="29291.00" arrivalPos="23.94" duration="93.00" routeLength="143.77" timeLoss="-8.29" maxSpeed="1.42"/>
        <ride waitingTime="90.00" vehicle="taxi56" depart="29381.00" arrival="29916.00" arrivalPos="15.00" duration="535.00" routeLength="8976.22" timeLoss="65.99"/>
        <walk depart="29916.00" departPos="15.00" arrival="29930.00" arrivalPos="1.99" duration="14.00" routeLength="20.20" timeLoss="-0.23" maxSpeed="1.42"/>
    </personinfo>
    <personinfo id="d56" depart="28921.78" type="DEFAULT_PEDTYPE">
        <walk depart="28922.00" departPos="6.52" arrival="28930.00" arrivalPos="15.00" duration="8.00" routeLength="8.48" timeLoss="1.35" maxSpeed="1.28"/>
        <ride waitingTime="60.00" vehicle="taxi63" depart="28990.00" arrival="29592.00" arrivalPos="15.00" duration="602.00" routeLength="10570.68" timeLoss="73.22"/>
        <walk depart="29592.00" departPos="15.00" arrival="29935.00" arrivalPos="62.06" duration="343.00" routeLength="452.97" timeLoss="-12.05" maxSpeed="1.28"/>
    </personinfo>
    <personinfo id="tp122" depart="28979.52" type="DEFAULT_PEDTYPE">
        <walk depart="28980.00" departPos="29.18" arrival="28990.00" arrivalPos="18.71" duration="10.00" routeLength="10.47" timeLoss="1.10" maxSpeed="1.18"/>
        <ride waitingTime="54.00" vehicle="taxi10" depart="29044.00" arrival="29442.00" arrivalPos="45.55" duration="398.00" routeLength="4090.06" timeLoss="48.24"/>
        <walk depart="29442.00" departPos="45.55" arrival="29948.00" arrivalPos="105.14" duration="506.00" routeLength="553.33" timeLoss="35.55" maxSpeed="1.18"/>
    </personinfo>
    <personinfo id="tn81" depart="29197.95" type="DEFAULT_PEDTYPE">
        <walk depart="29198.00" departPos="14.05" arrival="29379.00" arrivalPos="23.94" duration="181.00" routeLength="250.40" timeLoss="1.02" maxSpeed="1.39"/>
        <ride waitingTime="347.00" vehicle="taxi10" depart="29726.00" arrival="29856.00" arrivalPos="25.00" duration="130.00" routeLength="1701.33" timeLoss="20.53"/>
        <walk depart="29856.00" departPos="25.00" arrival="29969.00" arrivalPos="0.24" duration="113.00" routeLength="143.26" timeLoss="10.03" maxSpeed="1.39"/>
    </personinfo>
    <personinfo id="tn85" depart="28889.60" type="DEFAULT_PEDTYPE">
        <walk depart="28890.00" departPos="26.86" arrival="29304.00" arrivalPos="553.86" duration="414.00" routeLength="551.68" timeLoss="46.34" maxSpeed="1.50"/>
        <ride waitingTime="520.00" vehicle="taxi54" depart="29824.00" arrival="30048.00" arrivalPos="25.00" duration="224.00" routeLength="3011.61" timeLoss="32.99"/>
        <walk depart="30048.00" departPos="25.00" arrival="30049.00" arrivalPos="25.50" duration="1.00" routeLength="0.50" timeLoss="0.67" maxSpeed="1.50"/>
    </personinfo>
    <personinfo id="d136" depart="29903.27" type="DEFAULT_PEDTYPE">
        <walk depart="29904.00" departPos="19.62" arrival="29909.00" arrivalPos="15.00" duration="5.00" routeLength="4.62" timeLoss="1.19" maxSpeed="1.22"/>
        <ride waitingTime="43.00" vehicle="taxi36" depart="29952.00" arrival="30199.00" arrivalPos="25.48" duration="247.00" routeLength="3430.92" timeLoss="25.54"/>
        <walk depart="30199.00" departPos="25.48" arrival="30466.00" arrivalPos="1.56" duration="267.00" routeLength="307.54" timeLoss="13.89" maxSpeed="1.22"/>
    </personinfo>
    <personinfo id="d145" depart="30205.95" type="DEFAULT_PEDTYPE">
        <walk depart="30206.00" departPos="8.37" arrival="30212.00" arrivalPos="15.00" duration="6.00" routeLength="6.63" timeLoss="0.77" maxSpeed="1.27"/>
        <ride waitingTime="40.00" vehicle="taxi27" depart="30252.00" arrival="30393.00" arrivalPos="53.58" duration="141.00" routeLength="1640.39" timeLoss="23.89"/>
        <walk depart="30393.00" departPos="53.58" arrival="30489.00" arrivalPos="18.64" duration="96.00" routeLength="43.59" timeLoss="61.61" maxSpeed="1.27"/>
    </personinfo>
    <personinfo id="th129" depart="29903.27" type="DEFAULT_PEDTYPE">
        <walk depart="29904.00" departPos="12.29" arrival="30253.00" arrivalPos="184.55" duration="349.00" routeLength="448.72" timeLoss="34.21" maxSpeed="1.43"/>
        <ride waitingTime="374.00" vehicle="taxi27" depart="30627.00" arrival="30815.00" arrivalPos="25.00" duration="188.00" routeLength="2642.55" timeLoss="27.71"/>
        <walk depart="30815.00" departPos="25.00" arrival="30833.00" arrivalPos="1.24" duration="18.00" routeLength="23.76" timeLoss="1.33" maxSpeed="1.43"/>
    </personinfo>
    <personinfo id="th32" depart="28958.69" type="DEFAULT_PEDTYPE">
        <walk depart="28959.00" departPos="53.62" arrival="28991.00" arrivalPos="15.53" duration="32.00" routeLength="38.09" timeLoss="4.16" maxSpeed="1.37"/>
        <ride waitingTime="518.00" vehicle="taxi18" depart="29509.00" arrival="30816.00" arrivalPos="6.18" duration="1307.00" routeLength="24783.91" timeLoss="75.16"/>
        <walk depart="30816.00" departPos="6.18" arrival="30836.00" arrivalPos="24.95" duration="20.00" routeLength="41.80" timeLoss="-10.56" maxSpeed="1.37"/>
    </personinfo>
    <personinfo id="th138" depart="30205.95" type="DEFAULT_PEDTYPE">
        <walk depart="30206.00" departPos="2.94" arrival="30213.00" arrivalPos="5.29" duration="7.00" routeLength="28.15" timeLoss="-11.88" maxSpeed="1.49"/>
        <ride waitingTime="446.00" vehicle="taxi71" depart="30659.00" arrival="30934.00" arrivalPos="20.00" duration="275.00" routeLength="4213.08" timeLoss="41.97"/>
        <walk depart="30934.00" departPos="20.00" arrival="30935.00" arrivalPos="20.38" duration="1.00" routeLength="0.38" timeLoss="0.75" maxSpeed="1.49"/>
    </personinfo>
    <personinfo id="tp138" depart="30205.95" type="DEFAULT_PEDTYPE">
        <walk depart="30206.00" departPos="3.30" arrival="30215.00" arrivalPos="5.29" duration="9.00" routeLength="28.51" timeLoss="-15.94" maxSpeed="1.14"/>
        <ride waitingTime="464.00" vehicle="taxi62" depart="30679.00" arrival="30940.00" arrivalPos="20.00" duration="261.00" routeLength="4213.88" timeLoss="31.42"/>
        <walk depart="30940.00" departPos="20.00" arrival="30941.00" arrivalPos="20.38" duration="1.00" routeLength="0.38" timeLoss="0.67" maxSpeed="1.14"/>
    </personinfo>
    <personinfo id="tp129" depart="29903.27" type="DEFAULT_PEDTYPE">
        <walk depart="29904.00" departPos="30.21" arrival="30309.00" arrivalPos="184.55" duration="405.00" routeLength="466.65" timeLoss="40.72" maxSpeed="1.28"/>
        <ride waitingTime="435.00" vehicle="taxi53" depart="30744.00" arrival="30920.00" arrivalPos="25.00" duration="176.00" routeLength="2643.35" timeLoss="26.09"/>
        <walk depart="30920.00" departPos="25.00" arrival="30941.00" arrivalPos="1.24" duration="21.00" routeLength="23.76" timeLoss="2.45" maxSpeed="1.28"/>
    </personinfo>
    <personinfo id="tp26" depart="29784.39" type="DEFAULT_PEDTYPE">
        <walk depart="29785.00" departPos="134.49" arrival="30087.00" arrivalPos="2.55" duration="302.00" routeLength="418.73" timeLoss="23.95" maxSpeed="1.51"/>
        <ride waitingTime="42.00" vehicle="taxi71" depart="30129.00" arrival="30413.00" arrivalPos="18.17" duration="284.00" routeLength="4471.19" timeLoss="38.46"/>
        <walk depart="30413.00" departPos="18.17" arrival="31069.00" arrivalPos="36.60" duration="656.00" routeLength="938.96" timeLoss="32.51" maxSpeed="1.51"/>
    </personinfo>
    <personinfo id="d115" depart="30649.67" type="DEFAULT_PEDTYPE">
        <walk depart="30650.00" departPos="11.11" arrival="30653.00" arrivalPos="15.00" duration="3.00" routeLength="3.89" timeLoss="0.30" maxSpeed="1.44"/>
        <ride waitingTime="248.00" vehicle="taxi27" depart="30901.00" arrival="31029.00" arrivalPos="17.26" duration="128.00" routeLength="1533.40" timeLoss="24.13"/>
        <walk depart="31029.00" departPos="17.26" arrival="31079.00" arrivalPos="27.61" duration="50.00" routeLength="78.11" timeLoss="-4.26" maxSpeed="1.44"/>
    </personinfo>
    <personinfo id="tn26" depart="29784.39" type="DEFAULT_PEDTYPE">
        <walk depart="29785.00" departPos="144.50" arrival="30112.00" arrivalPos="2.55" duration="327.00" routeLength="428.74" timeLoss="28.69" maxSpeed="1.44"/>
        <ride waitingTime="48.00" vehicle="taxi62" depart="30160.00" arrival="30436.00" arrivalPos="18.17" duration="276.00" routeLength="4471.19" timeLoss="35.07"/>
        <walk depart="30436.00" departPos="18.17" arrival="31122.00" arrivalPos="36.60" duration="686.00" routeLength="938.96" timeLoss="32.69" maxSpeed="1.44"/>
    </personinfo>
    <personinfo id="th26" depart="29784.39" type="DEFAULT_PEDTYPE">
        <walk depart="29785.00" departPos="147.82" arrival="30136.00" arrivalPos="2.55" duration="351.00" routeLength="432.07" timeLoss="30.61" maxSpeed="1.35"/>
        <ride waitingTime="52.00" vehicle="taxi53" depart="30188.00" arrival="30457.00" arrivalPos="18.17" duration="269.00" routeLength="4471.18" timeLoss="36.91"/>
        <walk depart="30457.00" departPos="18.17" arrival="31187.00" arrivalPos="36.60" duration="730.00" routeLength="938.96" timeLoss="33.73" maxSpeed="1.35"/>
    </personinfo>
    <personinfo id="tp32" depart="28958.69" type="DEFAULT_PEDTYPE">
        <walk depart="28959.00" departPos="49.98" arrival="28988.00" arrivalPos="15.53" duration="29.00" routeLength="34.45" timeLoss="3.74" maxSpeed="1.36"/>
        <ride waitingTime="937.00" vehicle="taxi63" depart="29925.00" arrival="31201.00" arrivalPos="6.18" duration="1276.00" routeLength="24778.17" timeLoss="74.62"/>
        <walk depart="31201.00" departPos="6.18" arrival="31222.00" arrivalPos="24.95" duration="21.00" routeLength="41.80" timeLoss="-9.65" maxSpeed="1.36"/>
    </personinfo>
    <personinfo id="d66" depart="30056.12" type="DEFAULT_PEDTYPE">
        <walk depart="30057.00" departPos="11.90" arrival="30060.00" arrivalPos="15.00" duration="3.00" routeLength="3.10" timeLoss="0.67" maxSpeed="1.33"/>
        <ride waitingTime="492.00" vehicle="taxi36" depart="30552.00" arrival="31182.00" arrivalPos="34.99" duration="630.00" routeLength="11146.75" timeLoss="65.85"/>
        <walk depart="31182.00" departPos="34.99" arrival="31224.00" arrivalPos="14.16" duration="42.00" routeLength="52.37" timeLoss="2.53" maxSpeed="1.33"/>
    </personinfo>
    <personinfo id="tn32" depart="28958.69" type="DEFAULT_PEDTYPE">
        <walk depart="28959.00" departPos="12.01" arrival="28962.00" arrivalPos="15.53" duration="3.00" routeLength="3.52" timeLoss="0.52" maxSpeed="1.42"/>
        <ride waitingTime="963.00" vehicle="taxi63" depart="29925.00" arrival="31201.00" arrivalPos="6.18" duration="1276.00" routeLength="24778.17" timeLoss="74.62"/>
        <walk depart="31201.00" departPos="6.18" arrival="31224.00" arrivalPos="19.95" duration="23.00" routeLength="46.80" timeLoss="-9.97" maxSpeed="1.42"/>
    </personinfo>
    <personinfo id="tn48" depart="30772.95" type="DEFAULT_PEDTYPE">
        <walk depart="30773.00" departPos="12.59" arrival="30832.00" arrivalPos="10.67" duration="59.00" routeLength="67.67" timeLoss="7.68" maxSpeed="1.32"/>
        <ride waitingTime="98.00" vehicle="taxi45" depart="30930.00" arrival="31321.00" arrivalPos="20.00" duration="391.00" routeLength="6731.42" timeLoss="44.86"/>
        <walk depart="31321.00" departPos="20.00" arrival="31337.00" arrivalPos="1.20" duration="16.00" routeLength="18.80" timeLoss="1.74" maxSpeed="1.32"/>
    </personinfo>
    <personinfo id="tn68" depart="30891.43" type="DEFAULT_PEDTYPE">
        <walk depart="30892.00" departPos="0.06" arrival="30898.00" arrivalPos="6.12" duration="6.00" routeLength="8.85" timeLoss="-1.09" maxSpeed="1.25"/>
        <ride waitingTime="387.00" vehicle="taxi27" depart="31285.00" arrival="31441.00" arrivalPos="109.72" duration="156.00" routeLength="2593.64" timeLoss="31.51"/>
        <walk depart="31441.00" departPos="109.72" arrival="31491.00" arrivalPos="0.15" duration="50.00" routeLength="56.08" timeLoss="5.12" maxSpeed="1.25"/>
    </personinfo>
    <personinfo id="th109" depart="30649.67" type="DEFAULT_PEDTYPE">
        <walk depart="30650.00" departPos="5.31" arrival="30913.00" arrivalPos="5.29" duration="263.00" routeLength="341.36" timeLoss="-1.61" maxSpeed="1.29"/>
        <ride waitingTime="301.00" vehicle="taxi53" depart="31214.00" arrival="31457.00" arrivalPos="15.00" duration="243.00" routeLength="3811.60" timeLoss="41.09"/>
        <walk depart="31457.00" departPos="15.00" arrival="31510.00" arrivalPos="14.92" duration="53.00" routeLength="63.55" timeLoss="3.74" maxSpeed="1.29"/>
    </personinfo>
    <personinfo id="tp109" depart="30649.67" type="DEFAULT_PEDTYPE">
        <walk depart="30650.00" departPos="0.53" arrival="30861.00" arrivalPos="5.29" duration="211.00" routeLength="346.14" timeLoss="-2.46" maxSpeed="1.62"/>
        <ride waitingTime="339.00" vehicle="taxi53" depart="31200.00" arrival="31457.00" arrivalPos="15.00" duration="257.00" routeLength="3845.51" timeLoss="49.39"/>
        <walk depart="31457.00" departPos="15.00" arrival="31510.00" arrivalPos="14.92" duration="53.00" routeLength="63.55" timeLoss="13.81" maxSpeed="1.62"/>
    </personinfo>
    <personinfo id="th156" depart="31417.42" type="DEFAULT_PEDTYPE">
        <walk depart="31418.00" departPos="34.58" arrival="31454.00" arrivalPos="7.50" duration="36.00" routeLength="52.97" timeLoss="-0.22" maxSpeed="1.46"/>
        <ride waitingTime="151.00" vehicle="taxi11" depart="31605.00" arrival="31759.00" arrivalPos="25.00" duration="154.00" routeLength="1492.68" timeLoss="26.79"/>
        <walk depart="31759.00" departPos="25.00" arrival="31769.00" arrivalPos="13.22" duration="10.00" routeLength="11.78" timeLoss="1.94" maxSpeed="1.46"/>
    </personinfo>
    <personinfo id="tp156" depart="31417.42" type="DEFAULT_PEDTYPE">
        <walk depart="31418.00" departPos="30.97" arrival="31453.00" arrivalPos="7.50" duration="35.00" routeLength="49.36" timeLoss="-5.39" maxSpeed="1.22"/>
        <ride waitingTime="152.00" vehicle="taxi11" depart="31605.00" arrival="31759.00" arrivalPos="25.00" duration="154.00" routeLength="1492.68" timeLoss="26.79"/>
        <walk depart="31759.00" departPos="25.00" arrival="31771.00" arrivalPos="13.22" duration="12.00" routeLength="11.78" timeLoss="2.36" maxSpeed="1.22"/>
    </personinfo>
    <personinfo id="tn64" depart="29217.29" type="DEFAULT_PEDTYPE">
        <walk depart="29218.00" departPos="2.70" arrival="29839.00" arrivalPos="18.71" duration="621.00" routeLength="709.11" timeLoss="20.79" maxSpeed="1.18"/>
        <ride waitingTime="634.00" vehicle="taxi54" depart="30473.00" arrival="31306.00" arrivalPos="5.00" duration="833.00" routeLength="12632.64" timeLoss="89.22"/>
        <walk depart="31306.00" departPos="5.00" arrival="31935.00" arrivalPos="108.49" duration="629.00" routeLength="703.52" timeLoss="33.51" maxSpeed="1.18"/>
    </personinfo>
    <personinfo id="d57" depart="30960.73" type="DEFAULT_PEDTYPE">
        <walk depart="30961.00" departPos="20.00" arrival="30965.00" arrivalPos="15.00" duration="4.00" routeLength="5.00" timeLoss="0.54" maxSpeed="1.44"/>
        <ride waitingTime="442.00" vehicle="taxi45" depart="31407.00" arrival="31977.00" arrivalPos="15.00" duration="570.00" routeLength="10571.48" timeLoss="65.87"/>
        <walk depart="31977.00" departPos="15.00" arrival="31982.00" arrivalPos="21.47" duration="5.00" routeLength="6.47" timeLoss="0.52" maxSpeed="1.44"/>
    </personinfo>
    <personinfo id="th153" depart="30962.87" type="DEFAULT_PEDTYPE">
        <walk depart="30963.00" departPos="22.43" arrival="31518.00" arrivalPos="184.55" duration="555.00" routeLength="664.17" timeLoss="39.39" maxSpeed="1.29"/>
        <ride waitingTime="217.00" vehicle="taxi2" depart="31735.00" arrival="31970.00" arrivalPos="25.00" duration="235.00" routeLength="3217.66" timeLoss="50.97"/>
        <walk depart="31970.00" departPos="25.00" arrival="31991.00" arrivalPos="0.17" duration="21.00" routeLength="24.83" timeLoss="1.72" maxSpeed="1.29"/>
    </personinfo>
    <personinfo id="tp153" depart="30962.87" type="DEFAULT_PEDTYPE">
        <walk depart="30963.00" departPos="102.04" arrival="31519.00" arrivalPos="184.55" duration="556.00" routeLength="743.79" timeLoss="66.25" maxSpeed="1.52"/>
        <ride waitingTime="268.00" vehicle="taxi2" depart="31787.00" arrival="31970.00" arrivalPos="25.00" duration="183.00" routeLength="2643.35" timeLoss="27.86"/>
        <walk depart="31970.00" departPos="25.00" arrival="31992.00" arrivalPos="0.17" duration="22.00" routeLength="24.83" timeLoss="5.65" maxSpeed="1.52"/>
    </personinfo>
    <personinfo id="th89" depart="31346.34" type="DEFAULT_PEDTYPE">
        <walk depart="31347.00" departPos="52.69" arrival="31436.00" arrivalPos="9.76" duration="89.00" routeLength="126.15" timeLoss="2.63" maxSpeed="1.46"/>
        <ride waitingTime="146.00" vehicle="taxi47" depart="31582.00" arrival="32138.00" arrivalPos="34.99" duration="556.00" routeLength="9566.43" timeLoss="58.85"/>
        <walk depart="32138.00" departPos="34.99" arrival="32175.00" arrivalPos="12.82" duration="37.00" routeLength="51.03" timeLoss="2.07" maxSpeed="1.46"/>
    </personinfo>
    <personinfo id="tp89" depart="31346.34" type="DEFAULT_PEDTYPE">
        <walk depart="31347.00" departPos="65.40" arrival="31427.00" arrivalPos="9.76" duration="80.00" routeLength="113.44" timeLoss="1.00" maxSpeed="1.44"/>
        <ride waitingTime="123.00" vehicle="taxi47" depart="31550.00" arrival="32138.00" arrivalPos="34.99" duration="588.00" routeLength="9725.62" timeLoss="76.15"/>
        <walk depart="32138.00" departPos="34.99" arrival="32175.00" arrivalPos="12.82" duration="37.00" routeLength="51.03" timeLoss="1.46" maxSpeed="1.44"/>
    </personinfo>
    <personinfo id="d141" depart="31854.41" type="DEFAULT_PEDTYPE">
        <walk depart="31855.00" departPos="21.57" arrival="31866.00" arrivalPos="10.00" duration="11.00" routeLength="11.57" timeLoss="1.41" maxSpeed="1.21"/>
        <ride waitingTime="187.00" vehicle="taxi2" depart="32053.00" arrival="32202.00" arrivalPos="33.59" duration="149.00" routeLength="1872.25" timeLoss="23.49"/>
        <walk depart="32202.00" departPos="33.59" arrival="32270.00" arrivalPos="36.77" duration="68.00" routeLength="76.07" timeLoss="4.90" maxSpeed="1.21"/>
    </personinfo>
    <personinfo id="th146" depart="32072.04" type="DEFAULT_PEDTYPE">
        <walk depart="32073.00" departPos="210.48" arrival="32224.00" arrivalPos="7.50" duration="151.00" routeLength="202.98" timeLoss="14.62" maxSpeed="1.49"/>
        <ride waitingTime="130.00" vehicle="taxi65" depart="32354.00" arrival="32574.00" arrivalPos="25.00" duration="220.00" routeLength="2295.31" timeLoss="26.66"/>
        <walk depart="32574.00" departPos="25.00" arrival="32583.00" arrivalPos="12.94" duration="9.00" routeLength="12.06" timeLoss="0.90" maxSpeed="1.49"/>
    </personinfo>
    <personinfo id="tp146" depart="32072.04" type="DEFAULT_PEDTYPE">
        <walk depart="32073.00" departPos="17.66" arrival="32082.00" arrivalPos="7.50" duration="9.00" routeLength="10.16" timeLoss="1.08" maxSpeed="1.28"/>
        <ride waitingTime="193.00" vehicle="taxi65" depart="32275.00" arrival="32574.00" arrivalPos="25.00" duration="299.00" routeLength="2780.83" timeLoss="41.23"/>
        <walk depart="32574.00" departPos="25.00" arrival="32585.00" arrivalPos="12.94" duration="11.00" routeLength="12.06" timeLoss="1.60" maxSpeed="1.28"/>
    </personinfo>
    <personinfo id="d135" depart="32308.99" type="DEFAULT_PEDTYPE">
        <walk depart="32309.00" departPos="13.24" arrival="32311.00" arrivalPos="15.00" duration="2.00" routeLength="1.76" timeLoss="0.92" maxSpeed="1.63"/>
        <ride waitingTime="42.00" vehicle="taxi9" depart="32353.00" arrival="32488.00" arrivalPos="95.33" duration="135.00" routeLength="1312.04" timeLoss="23.09"/>
        <walk depart="32488.00" departPos="95.33" arrival="32622.00" arrivalPos="46.41" duration="134.00" routeLength="252.67" timeLoss="-20.76" maxSpeed="1.63"/>
    </personinfo>
    <personinfo id="d112" depart="32394.65" type="DEFAULT_PEDTYPE">
        <walk depart="32395.00" departPos="15.58" arrival="32399.00" arrivalPos="10.00" duration="4.00" routeLength="5.58" timeLoss="0.49" maxSpeed="1.59"/>
        <ride waitingTime="75.00" vehicle="taxi2" depart="32474.00" arrival="32643.00" arrivalPos="44.82" duration="169.00" routeLength="2066.63" timeLoss="27.74"/>
        <walk depart="32643.00" departPos="44.82" arrival="32748.00" arrivalPos="2.94" duration="105.00" routeLength="153.54" timeLoss="8.44" maxSpeed="1.59"/>
    </personinfo>
    <personinfo id="th136" depart="32421.41" type="DEFAULT_PEDTYPE">
        <walk depart="32422.00" departPos="0.85" arrival="32617.00" arrivalPos="37.39" duration="195.00" routeLength="265.38" timeLoss="16.50" maxSpeed="1.49"/>
        <ride waitingTime="22.00" vehicle="taxi29" depart="32639.00" arrival="32814.00" arrivalPos="25.00" duration="175.00" routeLength="2124.99" timeLoss="23.85"/>
        <walk depart="32814.00" departPos="25.00" arrival="32826.00" arrivalPos="9.21" duration="12.00" routeLength="15.79" timeLoss="1.38" maxSpeed="1.49"/>
    </personinfo>
    <personinfo id="tp136" depart="32421.41" type="DEFAULT_PEDTYPE">
        <walk depart="32422.00" departPos="2.26" arrival="32605.00" arrivalPos="37.39" duration="183.00" routeLength="263.97" timeLoss="15.13" maxSpeed="1.57"/>
        <ride waitingTime="34.00" vehicle="taxi29" depart="32639.00" arrival="32814.00" arrivalPos="25.00" duration="175.00" routeLength="2124.99" timeLoss="23.85"/>
        <walk depart="32814.00" departPos="25.00" arrival="32827.00" arrivalPos="9.21" duration="13.00" routeLength="15.79" timeLoss="2.96" maxSpeed="1.57"/>
    </personinfo>
    <personinfo id="d91" depart="32165.36" type="DEFAULT_PEDTYPE">
        <walk depart="32166.00" departPos="3.01" arrival="32179.00" arrivalPos="15.00" duration="13.00" routeLength="11.99" timeLoss="1.84" maxSpeed="1.07"/>
        <ride waitingTime="49.00" vehicle="taxi0" depart="32228.00" arrival="32725.00" arrivalPos="23.03" duration="497.00" routeLength="6812.51" timeLoss="95.89"/>
        <walk depart="32725.00" departPos="23.03" arrival="32865.00" arrivalPos="33.80" duration="140.00" routeLength="138.69" timeLoss="10.93" maxSpeed="1.07"/>
    </personinfo>
    <personinfo id="d144" depart="32585.92" type="DEFAULT_PEDTYPE">
        <walk depart="32586.00" departPos="16.99" arrival="32588.00" arrivalPos="15.00" duration="2.00" routeLength="1.99" timeLoss="0.43" maxSpeed="1.27"/>
        <ride waitingTime="101.00" vehicle="taxi65" depart="32689.00" arrival="32836.00" arrivalPos="53.58" duration="147.00" routeLength="1640.39" timeLoss="25.95"/>
        <walk depart="32836.00" departPos="53.58" arrival="32888.00" arrivalPos="70.72" duration="52.00" routeLength="61.37" timeLoss="3.68" maxSpeed="1.27"/>
    </personinfo>
    <personinfo id="th106" depart="32394.65" type="DEFAULT_PEDTYPE">
        <walk depart="32395.00" departPos="32.46" arrival="32647.00" arrivalPos="17.78" duration="252.00" routeLength="320.79" timeLoss="17.38" maxSpeed="1.37"/>
        <ride waitingTime="303.00" vehicle="NULL" depart="-1" arrival="32950.00" arrivalPos="25.83" duration="32950.00" routeLength="-1.00" timeLoss="-0.00"/>
        <stop duration="0.00" arrival="32950.00" arrivalPos="24.88" actType="last stage removed"/>
    </personinfo>
    <personinfo id="tp106" depart="32394.65" type="DEFAULT_PEDTYPE">
        <walk depart="32395.00" departPos="64.40" arrival="32648.00" arrivalPos="17.78" duration="253.00" routeLength="352.73" timeLoss="38.16" maxSpeed="1.64"/>
        <ride waitingTime="302.00" vehicle="NULL" depart="-1" arrival="32950.00" arrivalPos="25.83" duration="32950.00" routeLength="-1.00" timeLoss="-0.00"/>
        <stop duration="0.00" arrival="32950.00" arrivalPos="24.08" actType="last stage removed"/>
    </personinfo>
    <personinfo id="d35" depart="31079.74" type="DEFAULT_PEDTYPE">
        <walk depart="31080.00" departPos="1.12" arrival="31092.00" arrivalPos="15.00" duration="12.00" routeLength="13.88" timeLoss="1.44" maxSpeed="1.31"/>
        <ride waitingTime="821.00" vehicle="taxi36" depart="31913.00" arrival="32806.00" arrivalPos="15.00" duration="893.00" routeLength="16674.26" timeLoss="74.23"/>
        <walk depart="32806.00" departPos="15.00" arrival="32951.00" arrivalPos="1.00" duration="145.00" routeLength="212.89" timeLoss="-16.99" maxSpeed="1.31"/>
    </personinfo>
    <personinfo id="th63" depart="30915.84" type="DEFAULT_PEDTYPE">
        <walk depart="30916.00" departPos="93.41" arrival="31405.00" arrivalPos="87.83" duration="489.00" routeLength="600.19" timeLoss="39.23" maxSpeed="1.33"/>
        <ride waitingTime="612.00" vehicle="taxi27" depart="32017.00" arrival="32888.00" arrivalPos="15.00" duration="871.00" routeLength="16291.51" timeLoss="69.44"/>
        <walk depart="32888.00" departPos="15.00" arrival="32986.00" arrivalPos="7.10" duration="98.00" routeLength="119.44" timeLoss="8.50" maxSpeed="1.33"/>
    </personinfo>
    <personinfo id="tp63" depart="30915.84" type="DEFAULT_PEDTYPE">