<?xml version="1.0" encoding="UTF-8"?>

<!-- generated by Eclipse SUMO sumo Version 1.12.0
<configuration xmlns:xsi="http://www.w3.org/2001/XMLSchema-instance" xsi:noNamespaceSchemaLocation="http://sumo.dlr.de/xsd/sumoConfiguration.xsd">

    <input>
        <net-file value="D:\Dokumente\sumo\maloja\simple.net.xml"/>
        <route-files value="D:\Dokumente\sumo\maloja\09_daytrips\persontrips_maloja_daytrips_resolved_offseason_taxi_w15.rou.xml,D:\Dokumente\sumo\maloja\11_hotel\persontrips_maloja_hotel_resolved_offseason_taxi_w15.rou.xml,D:\Dokumente\sumo\maloja\12_non_hotel\persontrips_maloja_non_hotel_resolved_offseason_taxi_w15.rou.xml,D:\Dokumente\sumo\maloja\13_private\persontrips_maloja_private_resolved_offseason_taxi_w15.rou.xml"/>
        <additional-files value="D:\Dokumente\sumo\maloja\03_bus\virtualstop.add.xml,D:\Dokumente\sumo\maloja\03_bus\03_November\gtfs_pt_stops.add.xml,drt_fleet.xml"/>
    </input>

    <output>
        <tripinfo-output value="tripinfos_drt.xml"/>
        <tripinfo-output.write-unfinished value="true"/>
        <stop-output value="stopinfos_drt.xml"/>
        <statistic-output value="stats_drt.xml"/>
    </output>

    <time>
        <begin value="20520"/>
        <end value="77400"/>
    </time>

    <routing>
        <routing-algorithm value="CH"/>
        <persontrip.transfer.taxi-walk value="ptStops"/>
        <persontrip.transfer.walk-taxi value="ptStops"/>
    </routing>

    <report>
        <verbose value="true"/>
        <log value="simulation.log.txt"/>
        <error-log value="sumo_error.log"/>
        <duration-log.statistics value="true"/>
    </report>

    <taxi_device>
        <device.taxi.dispatch-algorithm value="traci"/>
    </taxi_device>

    <traci_server>
        <remote-port value="62460"/>
    </traci_server>

</configuration>
-->

<tripinfos xmlns:xsi="http://www.w3.org/2001/XMLSchema-instance" xsi:noNamespaceSchemaLocation="http://sumo.dlr.de/xsd/tripinfo_file.xsd">
    <personinfo id="d92" depart="29122.82" type="DEFAULT_PEDTYPE">
        <walk depart="29123.00" departPos="10.91" arrival="29127.00" arrivalPos="15.00" duration="4.00" routeLength="4.09" timeLoss="0.96" maxSpeed="1.34"/>
        <ride waitingTime="42.00" vehicle="taxi90" depart="29169.00" arrival="29568.00" arrivalPos="6.62" duration="399.00" routeLength="6656.83" timeLoss="43.86"/>
        <walk depart="29568.00" departPos="6.62" arrival="29604.00" arrivalPos="0.67" duration="36.00" routeLength="41.00" timeLoss="5.51" maxSpeed="1.34"/>
    </personinfo>
    <personinfo id="d89" depart="29197.95" type="DEFAULT_PEDTYPE">
        <walk depart="29198.00" departPos="4.83" arrival="29206.00" arrivalPos="15.00" duration="8.00" routeLength="10.17" timeLoss="1.50" maxSpeed="1.56"/>
        <ride waitingTime="52.00" vehicle="taxi72" depart="29258.00" arrival="29680.00" arrivalPos="516.88" duration="422.00" routeLength="7107.84" timeLoss="46.79"/>
        <walk depart="29680.00" departPos="516.88" arrival="29711.00" arrivalPos="23.98" duration="31.00" routeLength="45.61" timeLoss="1.82" maxSpeed="1.56"/>
    </personinfo>
    <personinfo id="tp122" depart="28979.52" type="DEFAULT_PEDTYPE">
        <walk depart="28980.00" departPos="0.56" arrival="28995.00" arrivalPos="18.71" duration="15.00" routeLength="18.15" timeLoss="1.63" maxSpeed="1.36"/>
        <ride waitingTime="57.00" vehicle="taxi64" depart="29052.00" arrival="29448.00" arrivalPos="38.05" duration="396.00" routeLength="3970.50" timeLoss="41.21"/>
        <walk depart="29448.00" departPos="38.05" arrival="29877.00" arrivalPos="105.14" duration="429.00" routeLength="545.83" timeLoss="26.94" maxSpeed="1.36"/>
    </personinfo>
    <personinfo id="th83" depart="29197.95" type="DEFAULT_PEDTYPE">
        <walk depart="29198.00" departPos="40.87" arrival="29349.00" arrivalPos="23.94" duration="151.00" routeLength="223.57" timeLoss="0.94" maxSpeed="1.49"/>
        <ride waitingTime="70.00" vehicle="taxi11" depart="29419.00" arrival="29878.00" arrivalPos="7.50" duration="459.00" routeLength="8597.14" timeLoss="50.50"/>
        <walk depart="29878.00" departPos="7.50" arrival="29886.00" arrivalPos="1.99" duration="8.00" routeLength="12.70" timeLoss="-0.53" maxSpeed="1.49"/>
    </personinfo>
    <personinfo id="tp83" depart="29197.95" type="DEFAULT_PEDTYPE">
        <walk depart="29198.00" departPos="99.19" arrival="29303.00" arrivalPos="23.94" duration="105.00" routeLength="165.26" timeLoss="-6.74" maxSpeed="1.48"/>
        <ride waitingTime="74.00" vehicle="taxi11" depart="29377.00" arrival="29878.00" arrivalPos="7.50" duration="501.00" routeLength="8968.72" timeLoss="63.82"/>
        <walk depart="29878.00" departPos="7.50" arrival="29886.00" arrivalPos="1.99" duration="8.00" routeLength="12.70" timeLoss="-0.59" maxSpeed="1.48"/>
    </personinfo>
    <personinfo id="tn85" depart="28889.60" type="DEFAULT_PEDTYPE">
        <walk depart="28890.00" departPos="4.46" arrival="29266.00" arrivalPos="553.86" duration="376.00" routeLength="529.27" timeLoss="42.33" maxSpeed="1.59"/>
        <ride waitingTime="393.00" vehicle="taxi64" depart="29659.00" arrival="29890.00" arrivalPos="15.00" duration="231.00" routeLength="3001.61" timeLoss="33.33"/>
        <walk depart="29890.00" departPos="15.00" arrival="29898.00" arrivalPos="25.50" duration="8.00" routeLength="10.50" timeLoss="1.38" maxSpeed="1.59"/>
    </personinfo>
    <personinfo id="d128" depart="28979.52" type="DEFAULT_PEDTYPE">
        <walk depart="28980.00" departPos="19.31" arrival="28987.00" arrivalPos="10.00" duration="7.00" routeLength="9.31" timeLoss="1.14" maxSpeed="1.59"/>
        <ride waitingTime="398.00" vehicle="taxi82" depart="29385.00" arrival="29569.00" arrivalPos="38.05" duration="184.00" routeLength="2618.88" timeLoss="26.99"/>
        <walk depart="29569.00" departPos="38.05" arrival="29936.00" arrivalPos="105.14" duration="367.00" routeLength="545.83" timeLoss="23.43" maxSpeed="1.59"/>
    </personinfo>
    <personinfo id="d56" depart="28921.78" type="DEFAULT_PEDTYPE">
        <walk depart="28922.00" departPos="0.38" arrival="28936.00" arrivalPos="15.00" duration="14.00" routeLength="14.62" timeLoss="1.77" maxSpeed="1.20"/>
        <ride waitingTime="54.00" vehicle="taxi81" depart="28990.00" arrival="29580.00" arrivalPos="7.50" duration="590.00" routeLength="10563.18" timeLoss="64.96"/>
        <walk depart="29580.00" departPos="7.50" arrival="29952.00" arrivalPos="62.06" duration="372.00" routeLength="460.47" timeLoss="-13.14" maxSpeed="1.20"/>
    </personinfo>
    <personinfo id="th122" depart="28979.52" type="DEFAULT_PEDTYPE">
        <walk depart="28980.00" departPos="14.78" arrival="28984.00" arrivalPos="18.71" duration="4.00" routeLength="3.93" timeLoss="1.02" maxSpeed="1.32"/>
        <ride waitingTime="32.00" vehicle="taxi82" depart="29016.00" arrival="29569.00" arrivalPos="38.05" duration="553.00" routeLength="5691.85" timeLoss="75.24"/>
        <walk depart="29569.00" departPos="38.05" arrival="30012.00" arrivalPos="105.14" duration="443.00" routeLength="545.83" timeLoss="28.76" maxSpeed="1.32"/>
    </personinfo>
    <personinfo id="tn81" depart="29197.95" type="DEFAULT_PEDTYPE">
        <walk depart="29198.00" departPos="6.21" arrival="29379.00" arrivalPos="23.94" duration="181.00" routeLength="258.23" timeLoss="1.27" maxSpeed="1.44"/>
        <ride waitingTime="528.00" vehicle="taxi90" depart="29907.00" arrival="30040.00" arrivalPos="15.00" duration="133.00" routeLength="1689.73" timeLoss="20.92"/>
        <walk depart="30040.00" departPos="15.00" arrival="30141.00" arrivalPos="0.24" duration="101.00" routeLength="133.26" timeLoss="8.25" maxSpeed="1.44"/>
    </personinfo>
    <personinfo id="d145" depart="30205.95" type="DEFAULT_PEDTYPE">
        <walk depart="30206.00" departPos="4.59" arrival="30214.00" arrivalPos="15.00" duration="8.00" routeLength="10.41" timeLoss="1.22" maxSpeed="1.54"/>
        <ride waitingTime="37.00" vehicle="taxi27" depart="30251.00" arrival="30390.00" arrivalPos="46.08" duration="139.00" routeLength="1632.89" timeLoss="22.92"/>
        <walk depart="30390.00" departPos="46.08" arrival="30465.00" arrivalPos="18.64" duration="75.00" routeLength="51.09" timeLoss="41.75" maxSpeed="1.54"/>
    </personinfo>
    <personinfo id="d136" depart="29903.27" type="DEFAULT_PEDTYPE">
        <walk depart="29904.00" departPos="25.65" arrival="29914.00" arrivalPos="15.00" duration="10.00" routeLength="10.65" timeLoss="1.47" maxSpeed="1.25"/>
        <ride waitingTime="189.00" vehicle="taxi90" depart="30103.00" arrival="30374.00" arrivalPos="20.48" duration="271.00" routeLength="3572.61" timeLoss="42.71"/>
        <walk depart="30374.00" departPos="20.48" arrival="30629.00" arrivalPos="1.56" duration="255.00" routeLength="302.54" timeLoss="12.62" maxSpeed="1.25"/>
    </personinfo>
    <personinfo id="th129" depart="29903.27" type="DEFAULT_PEDTYPE">
        <walk depart="29904.00" departPos="0.29" arrival="30299.00" arrivalPos="184.55" duration="395.00" routeLength="436.73" timeLoss="44.40" maxSpeed="1.25"/>
        <ride waitingTime="326.00" vehicle="taxi27" depart="30625.00" arrival="30811.00" arrivalPos="15.00" duration="186.00" routeLength="2628.36" timeLoss="27.07"/>
        <walk depart="30811.00" departPos="15.00" arrival="30824.00" arrivalPos="1.24" duration="13.00" routeLength="13.76" timeLoss="1.95" maxSpeed="1.25"/>
    </personinfo>
    <personinfo id="tp129" depart="29903.27" type="DEFAULT_PEDTYPE">
        <walk depart="29904.00" departPos="17.93" arrival="30363.00" arrivalPos="184.55" duration="459.00" routeLength="454.37" timeLoss="45.88" maxSpeed="1.10"/>
        <ride waitingTime="262.00" vehicle="taxi27" depart="30625.00" arrival="30811.00" arrivalPos="15.00" duration="186.00" routeLength="2628.36" timeLoss="27.07"/>
        <walk depart="30811.00" departPos="15.00" arrival="30826.00" arrivalPos="1.24" duration="15.00" routeLength="13.76" timeLoss="2.49" maxSpeed="1.10"/>
    </personinfo>
    <personinfo id="d66" depart="30056.12" type="DEFAULT_PEDTYPE">
        <walk depart="30057.00" departPos="26.56" arrival="30069.00" arrivalPos="15.00" duration="12.00" routeLength="11.56" timeLoss="1.91" maxSpeed="1.14"/>
        <ride waitingTime="61.00" vehicle="taxi90" depart="30130.00" arrival="30905.00" arrivalPos="27.49" duration="775.00" routeLength="11748.02" timeLoss="83.63"/>
        <walk depart="30905.00" departPos="27.49" arrival="30945.00" arrivalPos="14.16" duration="40.00" routeLength="44.87" timeLoss="0.81" maxSpeed="1.14"/>
    </personinfo>
    <personinfo id="th138" depart="30205.95" type="DEFAULT_PEDTYPE">
        <walk depart="30206.00" departPos="0.32" arrival="30212.00" arrivalPos="5.29" duration="6.00" routeLength="25.53" timeLoss="-16.56" maxSpeed="1.13"/>
        <ride waitingTime="520.00" vehicle="taxi80" depart="30732.00" arrival="30993.00" arrivalPos="10.00" duration="261.00" routeLength="4199.95" timeLoss="35.70"/>
        <walk depart="30993.00" departPos="10.00" arrival="31003.00" arrivalPos="20.38" duration="10.00" routeLength="10.38" timeLoss="0.83" maxSpeed="1.13"/>
    </personinfo>
    <personinfo id="tp138" depart="30205.95" type="DEFAULT_PEDTYPE">
        <walk depart="30206.00" departPos="1.06" arrival="30213.00" arrivalPos="5.29" duration="7.00" routeLength="26.27" timeLoss="-13.27" maxSpeed="1.30"/>
        <ride waitingTime="519.00" vehicle="taxi80" depart="30732.00" arrival="30993.00" arrivalPos="10.00" duration="261.00" routeLength="4199.95" timeLoss="35.70"/>
        <walk depart="30993.00" departPos="10.00" arrival="31004.00" arrivalPos="20.38" duration="11.00" routeLength="10.38" timeLoss="2.99" maxSpeed="1.30"/>
    </personinfo>
    <personinfo id="d115" depart="30649.67" type="DEFAULT_PEDTYPE">
        <walk depart="30650.00" departPos="23.65" arrival="30658.00" arrivalPos="15.00" duration="8.00" routeLength="8.65" timeLoss="1.36" maxSpeed="1.30"/>
        <ride waitingTime="240.00" vehicle="taxi27" depart="30898.00" arrival="31022.00" arrivalPos="9.76" duration="124.00" routeLength="1525.90" timeLoss="20.50"/>
        <walk depart="31022.00" departPos="9.76" arrival="31073.00" arrivalPos="27.61" duration="51.00" routeLength="70.61" timeLoss="-3.24" maxSpeed="1.30"/>
    </personinfo>
    <personinfo id="tn26" depart="29784.39" type="DEFAULT_PEDTYPE">
        <walk depart="29785.00" departPos="84.16" arrival="30098.00" arrivalPos="2.55" duration="313.00" routeLength="368.41" timeLoss="25.64" maxSpeed="1.28"/>
        <ride waitingTime="31.00" vehicle="taxi89" depart="30129.00" arrival="30403.00" arrivalPos="10.67" duration="274.00" routeLength="4463.69" timeLoss="35.33"/>
        <walk depart="30403.00" departPos="10.67" arrival="31178.00" arrivalPos="36.60" duration="775.00" routeLength="946.46" timeLoss="36.76" maxSpeed="1.28"/>
    </personinfo>
    <personinfo id="tp26" depart="29784.39" type="DEFAULT_PEDTYPE">
        <walk depart="29785.00" departPos="77.67" arrival="30081.00" arrivalPos="2.55" duration="296.00" routeLength="361.92" timeLoss="24.77" maxSpeed="1.33"/>
        <ride waitingTime="48.00" vehicle="taxi89" depart="30129.00" arrival="30403.00" arrivalPos="10.67" duration="274.00" routeLength="4463.69" timeLoss="35.33"/>
        <walk depart="30403.00" departPos="10.67" arrival="31178.00" arrivalPos="36.60" duration="775.00" routeLength="946.46" timeLoss="65.69" maxSpeed="1.33"/>
    </personinfo>
    <personinfo id="th32" depart="28958.69" type="DEFAULT_PEDTYPE">
        <walk depart="28959.00" departPos="3.09" arrival="28971.00" arrivalPos="15.53" duration="12.00" routeLength="12.44" timeLoss="2.12" maxSpeed="1.26"/>
        <ride waitingTime="945.00" vehicle="taxi81" depart="29916.00" arrival="31184.00" arrivalPos="5.00" duration="1268.00" routeLength="24307.92" timeLoss="76.32"/>
        <walk depart="31184.00" departPos="5.00" arrival="31204.00" arrivalPos="24.95" duration="20.00" routeLength="40.62" timeLoss="-12.26" maxSpeed="1.26"/>
    </personinfo>
    <personinfo id="tp32" depart="28958.69" type="DEFAULT_PEDTYPE">
        <walk depart="28959.00" departPos="36.78" arrival="28975.00" arrivalPos="15.53" duration="16.00" routeLength="21.25" timeLoss="2.06" maxSpeed="1.52"/>
        <ride waitingTime="945.00" vehicle="taxi81" depart="29920.00" arrival="31184.00" arrivalPos="5.00" duration="1264.00" routeLength="24304.57" timeLoss="73.72"/>
        <walk depart="31184.00" departPos="5.00" arrival="31205.00" arrivalPos="24.95" duration="21.00" routeLength="40.62" timeLoss="-5.66" maxSpeed="1.52"/>
    </personinfo>
    <personinfo id="tn32" depart="28958.69" type="DEFAULT_PEDTYPE">
        <walk depart="28959.00" departPos="62.68" arrival="28994.00" arrivalPos="15.53" duration="35.00" routeLength="47.15" timeLoss="3.45" maxSpeed="1.49"/>
        <ride waitingTime="926.00" vehicle="taxi81" depart="29920.00" arrival="31184.00" arrivalPos="5.00" duration="1264.00" routeLength="24304.57" timeLoss="73.72"/>
        <walk depart="31184.00" departPos="5.00" arrival="31209.00" arrivalPos="19.95" duration="25.00" routeLength="45.62" timeLoss="-5.53" maxSpeed="1.49"/>
    </personinfo>
    <personinfo id="tn48" depart="30772.95" type="DEFAULT_PEDTYPE">
        <walk depart="30773.00" departPos="13.51" arrival="30820.00" arrivalPos="10.67" duration="47.00" routeLength="68.59" timeLoss="6.36" maxSpeed="1.69"/>
        <ride waitingTime="40.00" vehicle="taxi89" depart="30860.00" arrival="31262.00" arrivalPos="10.00" duration="402.00" routeLength="6721.42" timeLoss="45.99"/>
        <walk depart="31262.00" departPos="10.00" arrival="31268.00" arrivalPos="1.20" duration="6.00" routeLength="8.80" timeLoss="0.79" maxSpeed="1.69"/>
    </personinfo>
    <personinfo id="th26" depart="29784.39" type="DEFAULT_PEDTYPE">
        <walk depart="29785.00" departPos="121.00" arrival="30177.00" arrivalPos="2.55" duration="392.00" routeLength="405.24" timeLoss="32.35" maxSpeed="1.13"/>
        <ride waitingTime="41.00" vehicle="taxi80" depart="30218.00" arrival="30492.00" arrivalPos="10.67" duration="274.00" routeLength="4463.66" timeLoss="36.66"/>
        <walk depart="30492.00" departPos="10.67" arrival="31374.00" arrivalPos="36.60" duration="882.00" routeLength="946.46" timeLoss="42.02" maxSpeed="1.13"/>
    </personinfo>
    <personinfo id="tn68" depart="30891.43" type="DEFAULT_PEDTYPE">
        <walk depart="30892.00" departPos="0.11" arrival="30898.00" arrivalPos="6.12" duration="6.00" routeLength="8.90" timeLoss="-0.37" maxSpeed="1.40"/>
        <ride waitingTime="386.00" vehicle="taxi27" depart="31284.00" arrival="31438.00" arrivalPos="102.22" duration="154.00" routeLength="2586.94" timeLoss="29.44"/>
        <walk depart="31438.00" departPos="102.22" arrival="31491.00" arrivalPos="0.15" duration="53.00" routeLength="63.58" timeLoss="7.50" maxSpeed="1.40"/>
    </personinfo>
    <personinfo id="th109" depart="30649.67" type="DEFAULT_PEDTYPE">
        <walk depart="30650.00" departPos="10.29" arrival="30896.00" arrivalPos="5.29" duration="246.00" routeLength="336.38" timeLoss="-6.04" maxSpeed="1.33"/>
        <ride waitingTime="377.00" vehicle="taxi27" depart="31273.00" arrival="31611.00" arrivalPos="7.50" duration="338.00" routeLength="3838.71" timeLoss="56.75"/>
        <walk depart="31611.00" departPos="7.50" arrival="31655.00" arrivalPos="14.92" duration="44.00" routeLength="56.05" timeLoss="2.00" maxSpeed="1.33"/>
    </personinfo>
    <personinfo id="tp109" depart="30649.67" type="DEFAULT_PEDTYPE">
        <walk depart="30650.00" departPos="7.93" arrival="30897.00" arrivalPos="5.29" duration="247.00" routeLength="338.74" timeLoss="17.85" maxSpeed="1.48"/>
        <ride waitingTime="376.00" vehicle="taxi27" depart="31273.00" arrival="31611.00" arrivalPos="7.50" duration="338.00" routeLength="3838.71" timeLoss="56.75"/>
        <walk depart="31611.00" departPos="7.50" arrival="31656.00" arrivalPos="14.92" duration="45.00" routeLength="56.05" timeLoss="7.08" maxSpeed="1.48"/>
    </personinfo>
    <personinfo id="d57" depart="30960.73" type="DEFAULT_PEDTYPE">
        <walk depart="30961.00" departPos="5.93" arrival="30968.00" arrivalPos="15.00" duration="7.00" routeLength="9.07" timeLoss="0.51" maxSpeed="1.40"/>
        <ride waitingTime="411.00" vehicle="taxi89" depart="31379.00" arrival="32008.00" arrivalPos="7.50" duration="629.00" routeLength="10930.90" timeLoss="82.50"/>
        <walk depart="32008.00" departPos="7.50" arrival="32019.00" arrivalPos="21.47" duration="11.00" routeLength="13.97" timeLoss="0.99" maxSpeed="1.40"/>
    </personinfo>
    <personinfo id="d35" depart="31079.74" type="DEFAULT_PEDTYPE">
        <walk depart="31080.00" departPos="12.39" arrival="31082.00" arrivalPos="15.00" duration="2.00" routeLength="2.61" timeLoss="0.21" maxSpeed="1.46"/>
        <ride waitingTime="37.00" vehicle="taxi80" depart="31119.00" arrival="31986.00" arrivalPos="4.18" duration="867.00" routeLength="16653.13" timeLoss="72.66"/>
        <walk depart="31986.00" departPos="4.18" arrival="32107.00" arrivalPos="1.00" duration="121.00" routeLength="179.38" timeLoss="-1.76" maxSpeed="1.46"/>
    </personinfo>
    <personinfo id="d141" depart="31854.41" type="DEFAULT_PEDTYPE">
        <walk depart="31855.00" departPos="6.48" arrival="31859.00" arrivalPos="10.00" duration="4.00" routeLength="3.52" timeLoss="1.06" maxSpeed="1.20"/>
        <ride waitingTime="38.00" vehicle="taxi63" depart="31897.00" arrival="32049.00" arrivalPos="26.09" duration="152.00" routeLength="1864.75" timeLoss="25.10"/>
        <walk depart="32049.00" departPos="26.09" arrival="32125.00" arrivalPos="36.77" duration="76.00" routeLength="83.57" timeLoss="6.09" maxSpeed="1.20"/>
    </personinfo>
    <personinfo id="th156" depart="31417.42" type="DEFAULT_PEDTYPE">
        <walk depart="31418.00" departPos="8.62" arrival="31432.00" arrivalPos="7.50" duration="14.00" routeLength="27.01" timeLoss="-6.75" maxSpeed="1.30"/>
        <ride waitingTime="155.00" vehicle="taxi92" depart="31587.00" arrival="32147.00" arrivalPos="15.00" duration="560.00" routeLength="7061.47" timeLoss="71.41"/>
        <walk depart="32147.00" departPos="15.00" arrival="32149.00" arrivalPos="13.22" duration="2.00" routeLength="1.78" timeLoss="0.63" maxSpeed="1.30"/>
    </personinfo>
    <personinfo id="tp156" depart="31417.42" type="DEFAULT_PEDTYPE">
        <walk depart="31418.00" departPos="24.36" arrival="31452.00" arrivalPos="7.50" duration="34.00" routeLength="42.75" timeLoss="-6.21" maxSpeed="1.06"/>
        <ride waitingTime="292.00" vehicle="taxi92" depart="31744.00" arrival="32147.00" arrivalPos="15.00" duration="403.00" routeLength="5642.77" timeLoss="50.28"/>
        <walk depart="32147.00" departPos="15.00" arrival="32150.00" arrivalPos="13.22" duration="3.00" routeLength="1.78" timeLoss="1.33" maxSpeed="1.06"/>
    </personinfo>
    <personinfo id="th153" depart="30962.87" type="DEFAULT_PEDTYPE">
        <walk depart="30963.00" departPos="52.72" arrival="31475.00" arrivalPos="184.55" duration="512.00" routeLength="694.47" timeLoss="36.05" maxSpeed="1.46"/>
        <ride waitingTime="477.00" vehicle="taxi92" depart="31952.00" arrival="32147.00" arrivalPos="15.00" duration="195.00" routeLength="2628.36" timeLoss="25.25"/>
        <walk depart="32147.00" departPos="15.00" arrival="32159.00" arrivalPos="0.17" duration="12.00" routeLength="14.83" timeLoss="1.84" maxSpeed="1.46"/>
    </personinfo>
    <personinfo id="tp153" depart="30962.87" type="DEFAULT_PEDTYPE">
        <walk depart="30963.00" departPos="67.14" arrival="31489.00" arrivalPos="184.55" duration="526.00" routeLength="708.89" timeLoss="34.95" maxSpeed="1.44"/>
        <ride waitingTime="463.00" vehicle="taxi92" depart="31952.00" arrival="32148.00" arrivalPos="15.00" duration="196.00" routeLength="2628.36" timeLoss="25.25"/>
        <walk depart="32148.00" departPos="15.00" arrival="32160.00" arrivalPos="0.17" duration="12.00" routeLength="14.83" timeLoss="1.73" maxSpeed="1.44"/>
    </personinfo>
    <personinfo id="th89" depart="31346.34" type="DEFAULT_PEDTYPE">
        <walk depart="31347.00" departPos="27.28" arrival="31467.00" arrivalPos="9.76" duration="120.00" routeLength="151.56" timeLoss="3.66" maxSpeed="1.30"/>
        <ride waitingTime="110.00" vehicle="taxi65" depart="31577.00" arrival="32167.00" arrivalPos="27.49" duration="590.00" routeLength="9718.12" timeLoss="73.32"/>
        <walk depart="32167.00" departPos="27.49" arrival="32202.00" arrivalPos="12.82" duration="35.00" routeLength="43.53" timeLoss="1.59" maxSpeed="1.30"/>
    </personinfo>
    <personinfo id="tp89" depart="31346.34" type="DEFAULT_PEDTYPE">
        <walk depart="31347.00" departPos="14.78" arrival="31473.00" arrivalPos="9.76" duration="126.00" routeLength="164.06" timeLoss="4.11" maxSpeed="1.35"/>
        <ride waitingTime="132.00" vehicle="taxi65" depart="31605.00" arrival="32167.00" arrivalPos="27.49" duration="562.00" routeLength="9558.93" timeLoss="61.00"/>
        <walk depart="32167.00" departPos="27.49" arrival="32202.00" arrivalPos="12.82" duration="35.00" routeLength="43.53" timeLoss="2.66" maxSpeed="1.35"/>
    </personinfo>
    <personinfo id="th146" depart="32072.04" type="DEFAULT_PEDTYPE">
        <walk depart="32073.00" departPos="145.49" arrival="32194.00" arrivalPos="7.50" duration="121.00" routeLength="137.99" timeLoss="12.40" maxSpeed="1.27"/>
        <ride waitingTime="121.00" vehicle="taxi63" depart="32315.00" arrival="32522.00" arrivalPos="15.00" duration="207.00" routeLength="2285.31" timeLoss="25.02"/>
        <walk depart="32522.00" departPos="15.00" arrival="32524.00" arrivalPos="12.94" duration="2.00" routeLength="2.06" timeLoss="0.38" maxSpeed="1.27"/>
    </personinfo>
    <personinfo id="tp146" depart="32072.04" type="DEFAULT_PEDTYPE">
        <walk depart="32073.00" departPos="24.36" arrival="32088.00" arrivalPos="7.50" duration="15.00" routeLength="16.86" timeLoss="2.26" maxSpeed="1.32"/>
        <ride waitingTime="151.00" vehicle="taxi63" depart="32239.00" arrival="32522.00" arrivalPos="15.00" duration="283.00" routeLength="2770.83" timeLoss="39.92"/>
        <walk depart="32522.00" departPos="15.00" arrival="32525.00" arrivalPos="12.94" duration="3.00" routeLength="2.06" timeLoss="1.44" maxSpeed="1.32"/>
    </personinfo>
    <personinfo id="th63" depart="30915.84" type="DEFAULT_PEDTYPE">
        <walk depart="30916.00" departPos="6.53" arrival="31300.00" arrivalPos="87.83" duration="384.00" routeLength="513.31" timeLoss="27.53" maxSpeed="1.44"/>
        <ride waitingTime="171.00" vehicle="taxi45" depart="31471.00" arrival="32502.00" arrivalPos="7.50" duration="1031.00" routeLength="18611.68" timeLoss="118.92"/>
        <walk depart="32502.00" departPos="7.50" arrival="32599.00" arrivalPos="7.10" duration="97.00" routeLength="126.94" timeLoss="8.85" maxSpeed="1.44"/>
    </personinfo>
    <personinfo id="tp63" depart="30915.84" type="DEFAULT_PEDTYPE">
        <walk depart="30916.00" departPos="6.53" arrival="31301.00" arrivalPos="87.83" duration="385.00" routeLength="513.31" timeLoss="40.02" maxSpeed="1.49"/>
        <ride waitingTime="173.00" vehicle="taxi45" depart="31474.00" arrival="32502.00" arrivalPos="7.50" duration="1028.00" routeLength="18611.30" timeLoss="116.97"/>
        <walk depart="32502.00" departPos="7.50" arrival="32599.00" arrivalPos="7.10" duration="97.00" routeLength="126.94" timeLoss="11.69" maxSpeed="1.49"/>
    </personinfo>
    <personinfo id="d112" depart="32394.65" type="DEFAULT_PEDTYPE">
        <walk depart="32395.00" departPos="12.72" arrival="32397.00" arrivalPos="10.00" duration="2.00" routeLength="2.72" timeLoss="0.25" maxSpeed="1.55"/>
        <ride waitingTime="39.00" vehicle="taxi0" depart="32436.00" arrival="32602.00" arrivalPos="37.32" duration="166.00" routeLength="2066.24" timeLoss="29.30"/>
        <walk depart="32602.00" departPos="37.32" arrival="32714.00" arrivalPos="2.94" duration="112.00" routeLength="161.04" timeLoss="8.13" maxSpeed="1.55"/>
    </personinfo>
    <personinfo id="d144" depart="32585.92" type="DEFAULT_PEDTYPE">
        <walk depart="32586.00" departPos="26.43" arrival="32597.00" arrivalPos="15.00" duration="11.00" routeLength="11.43" timeLoss="1.29" maxSpeed="1.18"/>
        <ride waitingTime="56.00" vehicle="taxi9" depart="32653.00" arrival="32795.00" arrivalPos="46.08" duration="142.00" routeLength="1632.89" timeLoss="19.59"/>
        <walk depart="32795.00" departPos="46.08" arrival="32844.00" arrivalPos="70.72" duration="49.00" routeLength="53.87" timeLoss="3.24" maxSpeed="1.18"/>
    </personinfo>
    <personinfo id="d91" depart="32165.36" type="DEFAULT_PEDTYPE">
        <walk depart="32166.00" departPos="21.88" arrival="32172.00" arrivalPos="15.00" duration="6.00" routeLength="6.88" timeLoss="1.05" maxSpeed="1.39"/>
        <ride waitingTime="85.00" vehicle="taxi18" depart="32257.00" arrival="32749.00" arrivalPos="15.53" duration="492.00" routeLength="6635.65" timeLoss="80.10"/>
        <walk depart="32749.00" departPos="15.53" arrival="32864.00" arrivalPos="33.80" duration="115.00" routeLength="146.19" timeLoss="9.80" maxSpeed="1.39"/>
    </personinfo>
    <personinfo id="d100" depart="32367.26" type="DEFAULT_PEDTYPE">
        <walk depart="32368.00" departPos="24.81" arrival="32375.00" arrivalPos="15.00" duration="7.00" routeLength="9.81" timeLoss="0.76" maxSpeed="1.57"/>
        <ride waitingTime="33.00" vehicle="taxi36" depart="32408.00" arrival="32816.00" arrivalPos="6.62" duration="408.00" routeLength="6668.13" timeLoss="45.39"/>
        <walk depart="32816.00" departPos="6.62" arrival="32866.00" arrivalPos="19.40" duration="50.00" routeLength="84.80" timeLoss="-3.90" maxSpeed="1.57"/>
    </personinfo>
    <personinfo id="d93" depart="32235.74" type="DEFAULT_PEDTYPE">
        <walk depart="32236.00" departPos="2.09" arrival="32252.00" arrivalPos="15.00" duration="16.00" routeLength="12.91" timeLoss="2.35" maxSpeed="0.95"/>
        <ride waitingTime="37.00" vehicle="taxi54" depart="32289.00" arrival="32849.00" arrivalPos="19.32" duration="560.00" routeLength="8245.49" timeLoss="60.96"/>
        <walk depart="32849.00" departPos="19.32" arrival="32869.00" arrivalPos="3.03" duration="20.00" routeLength="16.29" timeLoss="2.77" maxSpeed="0.95"/>
    </personinfo>
    <personinfo id="d38" depart="32263.84" type="DEFAULT_PEDTYPE">
        <walk depart="32264.00" departPos="22.96" arrival="32272.00" arrivalPos="15.00" duration="8.00" routeLength="7.96" timeLoss="1.39" maxSpeed="1.20"/>
        <ride waitingTime="25.00" vehicle="taxi92" depart="32297.00" arrival="32938.00" arrivalPos="7.50" duration="641.00" routeLength="10552.35" timeLoss="68.14"/>
        <walk depart="32938.00" departPos="7.50" arrival="33118.00" arrivalPos="237.62" duration="180.00" routeLength="200.91" timeLoss="13.11" maxSpeed="1.20"/>
    </personinfo>
    <personinfo id="th94" depart="32367.26" type="DEFAULT_PEDTYPE">
        <walk depart="32368.00" departPos="49.19" arrival="32504.00" arrivalPos="37.32" duration="136.00" routeLength="165.74" timeLoss="12.84" maxSpeed="1.35"/>
        <ride waitingTime="82.00" vehicle="taxi74" depart="32586.00" arrival="33136.00" arrivalPos="27.49" duration="550.00" routeLength="9365.63" timeLoss="78.51"/>
        <walk depart="33136.00" departPos="27.49" arrival="33160.00" arrivalPos="1.15" duration="24.00" routeLength="31.86" timeLoss="0.33" maxSpeed="1.35"/>
    </personinfo>
    <personinfo id="tp94" depart="32367.26" type="DEFAULT_PEDTYPE">
        <walk depart="32368.00" departPos="36.40" arrival="32505.00" arrivalPos="37.32" duration="137.00" routeLength="178.54" timeLoss="17.13" maxSpeed="1.49"/>
        <ride waitingTime="108.00" vehicle="taxi74" depart="32613.00" arrival="33136.00" arrivalPos="27.49" duration="523.00" routeLength="9235.83" timeLoss="63.46"/>
        <walk depart="33136.00" departPos="27.49" arrival="33160.00" arrivalPos="1.15" duration="24.00" routeLength="31.86" timeLoss="2.61" maxSpeed="1.49"/>
    </personinfo>