<?xml version="1.0" encoding="UTF-8"?>

<!-- generated by Eclipse SUMO sumo Version 1.12.0
<configuration xmlns:xsi="http://www.w3.org/2001/XMLSchema-instance" xsi:noNamespaceSchemaLocation="http://sumo.dlr.de/xsd/sumoConfiguration.xsd">

    <input>
        <net-file value="D:\Dokumente\sumo\maloja\simple.net.xml"/>
        <route-files value="D:\Dokumente\sumo\maloja\01_schools\persontrips_maloja_school_resolved_offseason_taxi_modded_with_parents.rou.xml,D:\Dokumente\sumo\maloja\02_work\persontrips_maloja_work_resolved_offseason_taxi.rou.xml,D:\Dokumente\sumo\maloja\04_shopping\persontrips_maloja_shopping_resolved_offseason_taxi.rou.xml,D:\Dokumente\sumo\maloja\05_seniors\persontrips_maloja_seniors_resolved_offseason_taxi.rou.xml"/>
        <additional-files value="D:\Dokumente\sumo\maloja\03_bus\virtualstop.add.xml,D:\Dokumente\sumo\maloja\03_bus\03_November\gtfs_pt_stops.add.xml,drt_fleet.xml"/>
    </input>

    <output>
        <tripinfo-output value="tripinfos_drt.xml"/>
        <tripinfo-output.write-unfinished value="true"/>
        <stop-output value="stopinfos_drt.xml"/>
        <statistic-output value="stats_drt.xml"/>
    </output>

    <time>
        <begin value="20520"/>
        <end value="77400"/>
    </time>

    <routing>
        <routing-algorithm value="CH"/>
        <persontrip.transfer.taxi-walk value="ptStops"/>
        <persontrip.transfer.walk-taxi value="ptStops"/>
    </routing>

    <report>
        <verbose value="true"/>
        <log value="simulation.log.txt"/>
        <error-log value="sumo_error.log"/>
        <duration-log.statistics value="true"/>
    </report>

    <taxi_device>
        <device.taxi.dispatch-algorithm value="traci"/>
    </taxi_device>

    <traci_server>
        <remote-port value="56751"/>
    </traci_server>

</configuration>
-->

<tripinfos xmlns:xsi="http://www.w3.org/2001/XMLSchema-instance" xsi:noNamespaceSchemaLocation="http://sumo.dlr.de/xsd/tripinfo_file.xsd">
    <personinfo id="w582" depart="21673.98" type="DEFAULT_PEDTYPE">
        <walk depart="21674.00" departPos="14.19" arrival="21850.00" arrivalPos="87.83" duration="176.00" routeLength="218.14" timeLoss="22.17" maxSpeed="1.42"/>
        <ride waitingTime="152.00" vehicle="taxi81" depart="22002.00" arrival="22242.00" arrivalPos="12.25" duration="240.00" routeLength="3860.52" timeLoss="29.69"/>
        <walk depart="22242.00" departPos="12.25" arrival="22395.00" arrivalPos="16.78" duration="153.00" routeLength="201.58" timeLoss="10.84" maxSpeed="1.42"/>
    </personinfo>
    <personinfo id="w61" depart="22187.91" type="DEFAULT_PEDTYPE">
        <walk depart="22188.00" departPos="16.37" arrival="22426.00" arrivalPos="2.10" duration="238.00" routeLength="298.26" timeLoss="15.36" maxSpeed="1.34"/>
        <ride waitingTime="24.00" vehicle="NULL" depart="-1" arrival="22450.00" arrivalPos="15.00" duration="22450.00" routeLength="-1.00" timeLoss="-0.00"/>
        <stop duration="0.00" arrival="22450.00" arrivalPos="3.79" actType="last stage removed"/>
    </personinfo>
    <personinfo id="w855" depart="22284.37" type="DEFAULT_PEDTYPE">
        <walk depart="22285.00" departPos="5.89" arrival="22293.00" arrivalPos="15.00" duration="8.00" routeLength="9.11" timeLoss="1.31" maxSpeed="1.36"/>
        <ride waitingTime="37.00" vehicle="taxi18" depart="22330.00" arrival="22569.00" arrivalPos="73.53" duration="239.00" routeLength="3091.07" timeLoss="36.23"/>
        <walk depart="22569.00" departPos="73.53" arrival="22606.00" arrivalPos="28.72" duration="37.00" routeLength="44.81" timeLoss="4.10" maxSpeed="1.36"/>
    </personinfo>
    <personinfo id="w517" depart="22041.84" type="DEFAULT_PEDTYPE">
        <walk depart="22042.00" departPos="64.84" arrival="22271.00" arrivalPos="14.90" duration="229.00" routeLength="251.17" timeLoss="4.27" maxSpeed="1.12"/>
        <ride waitingTime="173.00" vehicle="taxi90" depart="22444.00" arrival="22631.00" arrivalPos="15.00" duration="187.00" routeLength="3434.34" timeLoss="21.30"/>
        <walk depart="22631.00" departPos="15.00" arrival="22652.00" arrivalPos="11.81" duration="21.00" routeLength="32.09" timeLoss="-7.71" maxSpeed="1.12"/>
    </personinfo>
    <personinfo id="w6" depart="21655.65" type="DEFAULT_PEDTYPE">
        <walk depart="21656.00" departPos="15.59" arrival="21734.00" arrivalPos="50.34" duration="78.00" routeLength="116.55" timeLoss="1.61" maxSpeed="1.53"/>
        <ride waitingTime="352.00" vehicle="taxi88" depart="22086.00" arrival="22562.00" arrivalPos="44.42" duration="476.00" routeLength="8581.90" timeLoss="49.61"/>
        <walk depart="22562.00" departPos="44.42" arrival="22732.00" arrivalPos="7.84" duration="170.00" routeLength="258.35" timeLoss="0.67" maxSpeed="1.53"/>
    </personinfo>
    <personinfo id="w38" depart="21758.69" type="DEFAULT_PEDTYPE">
        <walk depart="21759.00" departPos="8.35" arrival="22001.00" arrivalPos="7.50" duration="242.00" routeLength="356.09" timeLoss="-30.32" maxSpeed="1.31"/>
        <ride waitingTime="237.00" vehicle="taxi106" depart="22238.00" arrival="22747.00" arrivalPos="6.18" duration="509.00" routeLength="8924.32" timeLoss="58.76"/>
        <walk depart="22747.00" departPos="6.18" arrival="22775.00" arrivalPos="16.52" duration="28.00" routeLength="50.23" timeLoss="-10.42" maxSpeed="1.31"/>
    </personinfo>
    <personinfo id="w726" depart="22229.06" type="DEFAULT_PEDTYPE">
        <walk depart="22230.00" departPos="1.68" arrival="22237.00" arrivalPos="5.29" duration="7.00" routeLength="26.89" timeLoss="-14.31" maxSpeed="1.26"/>
        <ride waitingTime="316.00" vehicle="taxi33" depart="22553.00" arrival="22887.00" arrivalPos="25.00" duration="334.00" routeLength="4042.33" timeLoss="52.60"/>
        <walk depart="22887.00" departPos="25.00" arrival="22893.00" arrivalPos="19.38" duration="6.00" routeLength="5.62" timeLoss="1.55" maxSpeed="1.26"/>
    </personinfo>
    <personinfo id="w550" depart="22400.84" type="DEFAULT_PEDTYPE">
        <walk depart="22401.00" departPos="15.78" arrival="22428.00" arrivalPos="16.58" duration="27.00" routeLength="42.48" timeLoss="-5.23" maxSpeed="1.32"/>
        <ride waitingTime="139.00" vehicle="taxi38" depart="22567.00" arrival="22825.00" arrivalPos="20.00" duration="258.00" routeLength="2658.77" timeLoss="46.14"/>
        <walk depart="22825.00" departPos="20.00" arrival="22904.00" arrivalPos="47.38" duration="79.00" routeLength="87.59" timeLoss="12.54" maxSpeed="1.32"/>
    </personinfo>
    <personinfo id="w692" depart="22314.00" type="DEFAULT_PEDTYPE">
        <walk depart="22314.00" departPos="1.32" arrival="22339.00" arrivalPos="37.39" duration="25.00" routeLength="41.90" timeLoss="1.06" maxSpeed="1.75"/>
        <ride waitingTime="435.00" vehicle="taxi18" depart="22774.00" arrival="22950.00" arrivalPos="20.00" duration="176.00" routeLength="2155.20" timeLoss="24.62"/>
        <walk depart="22950.00" departPos="20.00" arrival="22954.00" arrivalPos="14.07" duration="4.00" routeLength="5.93" timeLoss="0.61" maxSpeed="1.75"/>
    </personinfo>
    <personinfo id="w220" depart="21942.87" type="DEFAULT_PEDTYPE">
        <walk depart="21943.00" departPos="13.22" arrival="22234.00" arrivalPos="10.67" duration="291.00" routeLength="366.63" timeLoss="0.84" maxSpeed="1.26"/>
        <ride waitingTime="149.00" vehicle="taxi33" depart="22383.00" arrival="22699.00" arrivalPos="31.44" duration="316.00" routeLength="5215.58" timeLoss="57.96"/>
        <walk depart="22699.00" departPos="31.44" arrival="22965.00" arrivalPos="16.03" duration="266.00" routeLength="325.93" timeLoss="8.05" maxSpeed="1.26"/>
    </personinfo>
    <personinfo id="w592" depart="21912.99" type="DEFAULT_PEDTYPE">
        <walk depart="21913.00" departPos="6.13" arrival="22081.00" arrivalPos="23.94" duration="168.00" routeLength="191.41" timeLoss="12.28" maxSpeed="1.23"/>
        <ride waitingTime="371.00" vehicle="taxi81" depart="22452.00" arrival="22802.00" arrivalPos="25.48" duration="350.00" routeLength="4394.05" timeLoss="43.17"/>
        <walk depart="22802.00" departPos="25.48" arrival="23043.00" arrivalPos="12.26" duration="241.00" routeLength="276.80" timeLoss="15.81" maxSpeed="1.23"/>
    </personinfo>
    <personinfo id="w477" depart="21955.36" type="DEFAULT_PEDTYPE">
        <walk depart="21956.00" departPos="13.63" arrival="22508.00" arrivalPos="15.00" duration="552.00" routeLength="741.53" timeLoss="15.76" maxSpeed="1.38"/>
        <ride waitingTime="291.00" vehicle="taxi38" depart="22799.00" arrival="23098.00" arrivalPos="10.59" duration="299.00" routeLength="4354.99" timeLoss="47.83"/>
        <walk depart="23098.00" departPos="10.59" arrival="23125.00" arrivalPos="2.51" duration="27.00" routeLength="32.18" timeLoss="3.73" maxSpeed="1.38"/>
    </personinfo>
    <personinfo id="w8" depart="21981.92" type="DEFAULT_PEDTYPE">
        <walk depart="21982.00" departPos="18.23" arrival="22217.00" arrivalPos="7.26" duration="235.00" routeLength="314.98" timeLoss="-23.13" maxSpeed="1.22"/>
        <ride waitingTime="42.00" vehicle="taxi85" depart="22259.00" arrival="22947.00" arrivalPos="18.64" duration="688.00" routeLength="13186.69" timeLoss="40.52"/>
        <walk depart="22947.00" departPos="18.64" arrival="23155.00" arrivalPos="0.16" duration="208.00" routeLength="290.80" timeLoss="-30.32" maxSpeed="1.22"/>
    </personinfo>
    <personinfo id="w296" depart="22744.44" type="DEFAULT_PEDTYPE">
        <walk depart="22745.00" departPos="18.53" arrival="22891.00" arrivalPos="7.50" duration="146.00" routeLength="194.12" timeLoss="6.57" maxSpeed="1.39"/>
        <ride waitingTime="116.00" vehicle="taxi33" depart="23007.00" arrival="23180.00" arrivalPos="15.00" duration="173.00" routeLength="3428.19" timeLoss="19.85"/>
        <walk depart="23180.00" departPos="15.00" arrival="23203.00" arrivalPos="13.37" duration="23.00" routeLength="38.82" timeLoss="-4.89" maxSpeed="1.39"/>
    </personinfo>
    <personinfo id="w650" depart="22089.60" type="DEFAULT_PEDTYPE">
        <walk depart="22090.00" departPos="10.05" arrival="22601.00" arrivalPos="7.77" duration="511.00" routeLength="696.08" timeLoss="-4.71" maxSpeed="1.35"/>
        <ride waitingTime="490.00" vehicle="taxi18" depart="23091.00" arrival="23214.00" arrivalPos="25.00" duration="123.00" routeLength="1222.58" timeLoss="26.16"/>
        <walk depart="23214.00" departPos="25.00" arrival="23224.00" arrivalPos="12.82" duration="10.00" routeLength="12.18" timeLoss="0.98" maxSpeed="1.35"/>
    </personinfo>
    <personinfo id="w271" depart="22209.79" type="DEFAULT_PEDTYPE">
        <walk depart="22210.00" departPos="34.50" arrival="22490.00" arrivalPos="66.03" duration="280.00" routeLength="373.85" timeLoss="23.20" maxSpeed="1.46"/>
        <ride waitingTime="88.00" vehicle="taxi2" depart="22578.00" arrival="22974.00" arrivalPos="384.72" duration="396.00" routeLength="8178.56" timeLoss="27.90"/>
        <walk depart="22974.00" departPos="384.72" arrival="23323.00" arrivalPos="504.08" duration="349.00" routeLength="456.35" timeLoss="35.54" maxSpeed="1.46"/>
    </personinfo>
    <personinfo id="w300" depart="21749.63" type="DEFAULT_PEDTYPE">
        <walk depart="21750.00" departPos="37.00" arrival="22268.00" arrivalPos="87.83" duration="518.00" routeLength="688.59" timeLoss="10.47" maxSpeed="1.36"/>
        <ride waitingTime="127.00" vehicle="taxi90" depart="22395.00" arrival="22917.00" arrivalPos="37.25" duration="522.00" routeLength="7262.26" timeLoss="71.14"/>
        <walk depart="22917.00" departPos="37.25" arrival="23325.00" arrivalPos="31.47" duration="408.00" routeLength="537.65" timeLoss="11.72" maxSpeed="1.36"/>
    </personinfo>
    <personinfo id="w772" depart="22753.78" type="DEFAULT_PEDTYPE">
        <walk depart="22754.00" departPos="25.15" arrival="22763.00" arrivalPos="15.00" duration="9.00" routeLength="10.15" timeLoss="1.11" maxSpeed="1.29"/>
        <ride waitingTime="166.00" vehicle="taxi33" depart="22929.00" arrival="23365.00" arrivalPos="15.00" duration="436.00" routeLength="7015.00" timeLoss="75.23"/>
        <walk depart="23365.00" departPos="15.00" arrival="23434.00" arrivalPos="94.97" duration="69.00" routeLength="79.97" timeLoss="6.80" maxSpeed="1.29"/>
    </personinfo>
    <personinfo id="w169" depart="22473.90" type="DEFAULT_PEDTYPE">
        <walk depart="22474.00" departPos="1.39" arrival="22515.00" arrivalPos="6.62" duration="41.00" routeLength="40.28" timeLoss="5.40" maxSpeed="1.13"/>
        <ride waitingTime="159.00" vehicle="taxi105" depart="22674.00" arrival="22970.00" arrivalPos="5.00" duration="296.00" routeLength="5120.44" timeLoss="43.74"/>
        <walk depart="22970.00" departPos="5.00" arrival="23438.00" arrivalPos="15.09" duration="468.00" routeLength="498.51" timeLoss="27.36" maxSpeed="1.13"/>
    </personinfo>
    <personinfo id="w243" depart="22608.03" type="DEFAULT_PEDTYPE">
        <walk depart="22609.00" departPos="40.72" arrival="22823.00" arrivalPos="7.04" duration="214.00" routeLength="283.64" timeLoss="-4.88" maxSpeed="1.30"/>
        <ride waitingTime="370.00" vehicle="taxi38" depart="23193.00" arrival="23437.00" arrivalPos="25.00" duration="244.00" routeLength="4158.31" timeLoss="30.40"/>
        <walk depart="23437.00" departPos="25.00" arrival="23449.00" arrivalPos="11.24" duration="12.00" routeLength="13.76" timeLoss="1.38" maxSpeed="1.30"/>
    </personinfo>
    <personinfo id="w241" depart="22898.74" type="DEFAULT_PEDTYPE">
        <walk depart="22899.00" departPos="6.11" arrival="22933.00" arrivalPos="48.13" duration="34.00" routeLength="42.02" timeLoss="3.39" maxSpeed="1.37"/>
        <ride waitingTime="197.00" vehicle="taxi6" depart="23130.00" arrival="23543.00" arrivalPos="25.00" duration="413.00" routeLength="6860.33" timeLoss="47.03"/>
        <walk depart="23543.00" departPos="25.00" arrival="23561.00" arrivalPos="3.67" duration="18.00" routeLength="21.33" timeLoss="2.46" maxSpeed="1.37"/>
    </personinfo>
    <personinfo id="w659" depart="22806.22" type="DEFAULT_PEDTYPE">
        <walk depart="22807.00" departPos="125.16" arrival="23295.00" arrivalPos="184.55" duration="488.00" routeLength="552.74" timeLoss="55.43" maxSpeed="1.28"/>
        <ride waitingTime="227.00" vehicle="taxi2" depart="23522.00" arrival="23707.00" arrivalPos="25.00" duration="185.00" routeLength="2655.19" timeLoss="28.04"/>
        <walk depart="23707.00" departPos="25.00" arrival="23709.00" arrivalPos="27.38" duration="2.00" routeLength="2.38" timeLoss="0.14" maxSpeed="1.28"/>
    </personinfo>
    <personinfo id="w214" depart="21815.86" type="DEFAULT_PEDTYPE">
        <walk depart="21816.00" departPos="177.57" arrival="22442.00" arrivalPos="26.78" duration="626.00" routeLength="811.78" timeLoss="54.88" maxSpeed="1.42"/>
        <ride waitingTime="266.00" vehicle="taxi69" depart="22708.00" arrival="23390.00" arrivalPos="25.00" duration="682.00" routeLength="12947.80" timeLoss="56.16"/>
        <walk depart="23390.00" departPos="25.00" arrival="23733.00" arrivalPos="29.19" duration="343.00" routeLength="461.09" timeLoss="18.60" maxSpeed="1.42"/>
    </personinfo>
    <personinfo id="w143" depart="22703.27" type="DEFAULT_PEDTYPE">
        <walk depart="22704.00" departPos="39.41" arrival="22791.00" arrivalPos="18.43" duration="87.00" routeLength="120.17" timeLoss="-4.88" maxSpeed="1.31"/>
        <ride waitingTime="288.00" vehicle="taxi105" depart="23079.00" arrival="23510.00" arrivalPos="25.48" duration="431.00" routeLength="7729.42" timeLoss="57.50"/>
        <walk depart="23510.00" departPos="25.48" arrival="23758.00" arrivalPos="1.16" duration="248.00" routeLength="307.94" timeLoss="12.56" maxSpeed="1.31"/>
    </personinfo>
    <personinfo id="w611" depart="23307.55" type="DEFAULT_PEDTYPE">
        <walk depart="23308.00" departPos="48.07" arrival="23393.00" arrivalPos="9.76" duration="85.00" routeLength="130.77" timeLoss="0.21" maxSpeed="1.54"/>
        <ride waitingTime="213.00" vehicle="taxi27" depart="23606.00" arrival="23680.00" arrivalPos="15.00" duration="74.00" routeLength="570.19" timeLoss="16.52"/>
        <walk depart="23680.00" departPos="15.00" arrival="23778.00" arrivalPos="125.45" duration="98.00" routeLength="149.22" timeLoss="1.25" maxSpeed="1.54"/>
    </personinfo>
    <personinfo id="w394" depart="22217.73" type="DEFAULT_PEDTYPE">
        <walk depart="22218.00" departPos="81.14" arrival="22958.00" arrivalPos="20.48" duration="740.00" routeLength="817.02" timeLoss="58.94" maxSpeed="1.20"/>
        <ride waitingTime="574.00" vehicle="taxi18" depart="23532.00" arrival="23771.00" arrivalPos="22.40" duration="239.00" routeLength="3395.76" timeLoss="27.17"/>
        <walk depart="23771.00" departPos="22.40" arrival="23812.00" arrivalPos="21.14" duration="41.00" routeLength="61.03" timeLoss="-9.87" maxSpeed="1.20"/>
    </personinfo>
    <personinfo id="w915" depart="23636.60" type="DEFAULT_PEDTYPE">
        <walk depart="23637.00" departPos="27.31" arrival="23648.00" arrivalPos="15.00" duration="11.00" routeLength="12.31" timeLoss="0.88" maxSpeed="1.22"/>
        <ride waitingTime="61.00" vehicle="taxi9" depart="23709.00" arrival="23861.00" arrivalPos="53.58" duration="152.00" routeLength="1619.06" timeLoss="31.26"/>
        <walk depart="23861.00" departPos="53.58" arrival="23911.00" arrivalPos="74.73" duration="50.00" routeLength="57.36" timeLoss="2.84" maxSpeed="1.22"/>
    </personinfo>
    <personinfo id="w971" depart="23131.64" type="DEFAULT_PEDTYPE">
        <walk depart="23132.00" departPos="26.77" arrival="23142.00" arrivalPos="15.00" duration="10.00" routeLength="11.77" timeLoss="1.88" maxSpeed="1.45"/>
        <ride waitingTime="489.00" vehicle="taxi6" depart="23631.00" arrival="23950.00" arrivalPos="10.59" duration="319.00" routeLength="4636.61" timeLoss="49.78"/>
        <walk depart="23950.00" departPos="10.59" arrival="23960.00" arrivalPos="2.11" duration="10.00" routeLength="19.26" timeLoss="-3.29" maxSpeed="1.45"/>
    </personinfo>
    <personinfo id="w172" depart="22341.96" type="DEFAULT_PEDTYPE">
        <walk depart="22342.00" departPos="3.51" arrival="23173.00" arrivalPos="15.53" duration="831.00" routeLength="888.68" timeLoss="52.58" maxSpeed="1.14"/>
        <ride waitingTime="352.00" vehicle="taxi33" depart="23525.00" arrival="23765.00" arrivalPos="15.00" duration="240.00" routeLength="4509.73" timeLoss="39.81"/>
        <walk depart="23765.00" departPos="15.00" arrival="23980.00" arrivalPos="6.60" duration="215.00" routeLength="248.83" timeLoss="-2.96" maxSpeed="1.14"/>
    </personinfo>
    <personinfo id="w898" depart="23680.92" type="DEFAULT_PEDTYPE">
        <walk depart="23681.00" departPos="12.46" arrival="23684.00" arrivalPos="15.00" duration="3.00" routeLength="2.54" timeLoss="0.89" maxSpeed="1.20"/>
        <ride waitingTime="87.00" vehicle="taxi54" depart="23771.00" arrival="23908.00" arrivalPos="53.58" duration="137.00" routeLength="1629.56" timeLoss="23.01"/>
        <walk depart="23908.00" departPos="53.58" arrival="24003.00" arrivalPos="25.53" duration="95.00" routeLength="50.48" timeLoss="53.07" maxSpeed="1.20"/>
    </personinfo>
    <personinfo id="w983" depart="23445.98" type="DEFAULT_PEDTYPE">
        <walk depart="23446.00" departPos="4.44" arrival="23455.00" arrivalPos="15.00" duration="9.00" routeLength="10.56" timeLoss="1.50" maxSpeed="1.41"/>
        <ride waitingTime="46.00" vehicle="taxi45" depart="23501.00" arrival="23795.00" arrivalPos="30.05" duration="294.00" routeLength="3831.29" timeLoss="47.30"/>
        <walk depart="23795.00" departPos="30.05" arrival="24055.00" arrivalPos="115.14" duration="260.00" routeLength="331.58" timeLoss="24.49" maxSpeed="1.41"/>
    </personinfo>
    <personinfo id="w914" depart="23624.21" type="DEFAULT_PEDTYPE">
        <walk depart="23625.00" departPos="7.91" arrival="23631.00" arrivalPos="15.00" duration="6.00" routeLength="7.09" timeLoss="0.80" maxSpeed="1.36"/>
        <ride waitingTime="47.00" vehicle="taxi9" depart="23678.00" arrival="24003.00" arrivalPos="51.36" duration="325.00" routeLength="2394.08" timeLoss="70.42"/>
        <walk depart="24003.00" departPos="51.36" arrival="24068.00" arrivalPos="1.63" duration="65.00" routeLength="107.63" timeLoss="-13.94" maxSpeed="1.36"/>
    </personinfo>
    <personinfo id="w12" depart="23615.92" type="DEFAULT_PEDTYPE">
        <walk depart="23616.00" departPos="1.67" arrival="23691.00" arrivalPos="11.14" duration="75.00" routeLength="89.04" timeLoss="2.53" maxSpeed="1.23"/>
        <ride waitingTime="300.00" vehicle="taxi39" depart="23991.00" arrival="24049.00" arrivalPos="15.00" duration="58.00" routeLength="506.33" timeLoss="18.32"/>
        <walk depart="24049.00" departPos="15.00" arrival="24071.00" arrivalPos="1.93" duration="22.00" routeLength="33.46" timeLoss="-5.23" maxSpeed="1.23"/>
    </personinfo>
    <personinfo id="w325" depart="22779.20" type="DEFAULT_PEDTYPE">
        <walk depart="22780.00" departPos="23.22" arrival="23173.00" arrivalPos="184.55" duration="393.00" routeLength="505.01" timeLoss="43.57" maxSpeed="1.45"/>
        <ride waitingTime="531.00" vehicle="taxi38" depart="23704.00" arrival="23947.00" arrivalPos="51.36" duration="243.00" routeLength="2200.31" timeLoss="54.85"/>
        <walk depart="23947.00" departPos="51.36" arrival="24083.00" arrivalPos="1.48" duration="136.00" routeLength="210.13" timeLoss="-9.40" maxSpeed="1.45"/>
    </personinfo>
    <personinfo id="w295" depart="23334.61" type="DEFAULT_PEDTYPE">
        <walk depart="23335.00" departPos="93.36" arrival="23361.00" arrivalPos="7.50" duration="26.00" routeLength="32.04" timeLoss="2.93" maxSpeed="1.39"/>
        <ride waitingTime="134.00" vehicle="taxi27" depart="23495.00" arrival="23981.00" arrivalPos="14.08" duration="486.00" routeLength="5795.41" timeLoss="58.00"/>
        <walk depart="23981.00" departPos="14.08" arrival="24124.00" arrivalPos="12.62" duration="143.00" routeLength="203.79" timeLoss="-3.74" maxSpeed="1.39"/>
    </personinfo>
    <personinfo id="w591" depart="22867.39" type="DEFAULT_PEDTYPE">
        <walk depart="22868.00" departPos="59.75" arrival="22957.00" arrivalPos="5.29" duration="89.00" routeLength="136.97" timeLoss="-15.67" maxSpeed="1.31"/>
        <ride waitingTime="470.00" vehicle="taxi2" depart="23427.00" arrival="23706.00" arrivalPos="25.00" duration="279.00" routeLength="4251.56" timeLoss="47.50"/>
        <walk depart="23706.00" departPos="25.00" arrival="24131.00" arrivalPos="1.37" duration="425.00" routeLength="544.59" timeLoss="8.81" maxSpeed="1.31"/>
    </personinfo>
    <personinfo id="w1018" depart="23006.58" type="DEFAULT_PEDTYPE">
        <walk depart="23007.00" departPos="3.46" arrival="23012.00" arrivalPos="10.00" duration="5.00" routeLength="6.54" timeLoss="0.55" maxSpeed="1.47"/>
        <ride waitingTime="453.00" vehicle="taxi69" depart="23465.00" arrival="23698.00" arrivalPos="45.55" duration="233.00" routeLength="2870.49" timeLoss="52.40"/>
        <walk depart="23698.00" departPos="45.55" arrival="24135.00" arrivalPos="59.86" duration="437.00" routeLength="579.58" timeLoss="42.62" maxSpeed="1.47"/>
    </personinfo>
    <personinfo id="w553" depart="22938.16" type="DEFAULT_PEDTYPE">
        <walk depart="22939.00" departPos="37.20" arrival="23326.00" arrivalPos="184.55" duration="387.00" routeLength="499.27" timeLoss="33.26" maxSpeed="1.41"/>
        <ride waitingTime="427.00" vehicle="taxi38" depart="23753.00" arrival="24073.00" arrivalPos="32.59" duration="320.00" routeLength="2235.19" timeLoss="54.32"/>
        <walk depart="24073.00" departPos="32.59" arrival="24149.00" arrivalPos="5.56" duration="76.00" routeLength="97.51" timeLoss="6.91" maxSpeed="1.41"/>
    </personinfo>
    <personinfo id="w414" depart="23214.82" type="DEFAULT_PEDTYPE">
        <walk depart="23215.00" departPos="30.20" arrival="23272.00" arrivalPos="7.50" duration="57.00" routeLength="84.35" timeLoss="-0.73" maxSpeed="1.46"/>
        <ride waitingTime="535.00" vehicle="taxi105" depart="23807.00" arrival="24005.00" arrivalPos="46.63" duration="198.00" routeLength="1897.45" timeLoss="35.10"/>
        <walk depart="24005.00" departPos="46.63" arrival="24182.00" arrivalPos="10.88" duration="177.00" routeLength="293.02" timeLoss="-23.56" maxSpeed="1.46"/>
    </personinfo>
    <personinfo id="w319" depart="23441.56" type="DEFAULT_PEDTYPE">
        <walk depart="23442.00" departPos="31.50" arrival="23612.00" arrivalPos="23.94" duration="170.00" routeLength="227.38" timeLoss="14.85" maxSpeed="1.47"/>
        <ride waitingTime="243.00" vehicle="taxi105" depart="23855.00" arrival="24005.00" arrivalPos="46.63" duration="150.00" routeLength="1477.97" timeLoss="18.95"/>
        <walk depart="24005.00" departPos="46.63" arrival="24186.00" arrivalPos="20.58" duration="181.00" routeLength="302.72" timeLoss="-25.56" maxSpeed="1.47"/>
    </personinfo>
    <personinfo id="w334" depart="23382.15" type="DEFAULT_PEDTYPE">
        <walk depart="23383.00" departPos="85.09" arrival="23456.00" arrivalPos="5.29" duration="73.00" routeLength="138.76" timeLoss="-16.38" maxSpeed="1.55"/>
        <ride waitingTime="521.00" vehicle="taxi45" depart="23977.00" arrival="24131.00" arrivalPos="58.99" duration="154.00" routeLength="2385.52" timeLoss="30.68"/>
        <walk depart="24131.00" departPos="58.99" arrival="24208.00" arrivalPos="34.54" duration="77.00" routeLength="143.10" timeLoss="-15.17" maxSpeed="1.55"/>
    </personinfo>
    <personinfo id="w895" depart="23007.38" type="DEFAULT_PEDTYPE">
        <walk depart="23008.00" departPos="27.05" arrival="23019.00" arrivalPos="15.00" duration="11.00" routeLength="12.05" timeLoss="1.33" maxSpeed="1.25"/>
        <ride waitingTime="470.00" vehicle="taxi69" depart="23489.00" arrival="23856.00" arrivalPos="10.59" duration="367.00" routeLength="4354.46" timeLoss="62.51"/>
        <walk depart="23856.00" departPos="10.59" arrival="24230.00" arrivalPos="30.18" duration="374.00" routeLength="473.17" timeLoss="-5.71" maxSpeed="1.25"/>
    </personinfo>
    <personinfo id="w349" depart="23123.81" type="DEFAULT_PEDTYPE">
        <walk depart="23124.00" departPos="0.74" arrival="23293.00" arrivalPos="14.90" duration="169.00" routeLength="246.72" timeLoss="-8.21" maxSpeed="1.39"/>
        <ride waitingTime="460.00" vehicle="taxi6" depart="23753.00" arrival="24086.00" arrivalPos="73.53" duration="333.00" routeLength="4716.90" timeLoss="47.91"/>
        <walk depart="24086.00" departPos="73.53" arrival="24237.00" arrivalPos="5.04" duration="151.00" routeLength="196.81" timeLoss="9.64" maxSpeed="1.39"/>
    </personinfo>
    <personinfo id="w689" depart="23604.99" type="DEFAULT_PEDTYPE">
        <walk depart="23605.00" departPos="5.99" arrival="23648.00" arrivalPos="51.49" duration="43.00" routeLength="60.68" timeLoss="1.59" maxSpeed="1.47"/>
        <ride waitingTime="444.00" vehicle="taxi9" depart="24092.00" arrival="24267.00" arrivalPos="20.00" duration="175.00" routeLength="1779.10" timeLoss="46.43"/>
        <walk depart="24267.00" departPos="20.00" arrival="24271.00" arrivalPos="14.99" duration="4.00" routeLength="5.01" timeLoss="0.58" maxSpeed="1.47"/>
    </personinfo>
    <personinfo id="w977" depart="23602.43" type="DEFAULT_PEDTYPE">
        <walk depart="23603.00" departPos="9.21" arrival="23604.00" arrivalPos="10.00" duration="1.00" routeLength="0.79" timeLoss="0.45" maxSpeed="1.43"/>
        <ride waitingTime="353.00" vehicle="taxi18" depart="23957.00" arrival="24080.00" arrivalPos="21.05" duration="123.00" routeLength="1248.55" timeLoss="24.14"/>
        <walk depart="24080.00" departPos="21.05" arrival="24280.00" arrivalPos="21.61" duration="200.00" routeLength="260.15" timeLoss="18.29" maxSpeed="1.43"/>
    </personinfo>
    <personinfo id="s194" depart="23641.82" type="DEFAULT_PEDTYPE">
        <walk depart="23642.00" departPos="11.83" arrival="23717.00" arrivalPos="2.00" duration="75.00" routeLength="98.25" timeLoss="-0.40" maxSpeed="1.30"/>
        <ride waitingTime="57.00" vehicle="taxi90" depart="23774.00" arrival="24289.00" arrivalPos="15.00" duration="515.00" routeLength="7978.07" timeLoss="57.24"/>
        <walk depart="24289.00" departPos="15.00" arrival="24290.00" arrivalPos="16.05" duration="1.00" routeLength="1.05" timeLoss="0.19" maxSpeed="1.30"/>
    </personinfo>
    <personinfo id="w426" depart="23385.32" type="DEFAULT_PEDTYPE">
        <walk depart="23386.00" departPos="13.89" arrival="23496.00" arrivalPos="14.90" duration="110.00" routeLength="147.73" timeLoss="10.47" maxSpeed="1.48"/>
        <ride waitingTime="133.00" vehicle="taxi45" depart="23629.00" arrival="24219.00" arrivalPos="51.36" duration="590.00" routeLength="6765.67" timeLoss="84.47"/>
        <walk depart="24219.00" departPos="51.36" arrival="24298.00" arrivalPos="19.66" duration="79.00" routeLength="134.75" timeLoss="-11.78" maxSpeed="1.48"/>
    </personinfo>
    <personinfo id="s375" depart="23645.88" type="DEFAULT_PEDTYPE">
        <walk depart="23646.00" departPos="4.32" arrival="23664.00" arrivalPos="51.49" duration="18.00" routeLength="24.99" timeLoss="2.72" maxSpeed="1.64"/>
        <ride waitingTime="365.00" vehicle="taxi38" depart="24029.00" arrival="24325.00" arrivalPos="14.90" duration="296.00" routeLength="2333.45" timeLoss="44.85"/>
        <walk depart="24325.00" departPos="14.90" arrival="24343.00" arrivalPos="1.44" duration="18.00" routeLength="27.41" timeLoss="1.24" maxSpeed="1.64"/>
    </personinfo>
    <personinfo id="p375" depart="23645.88" type="DEFAULT_PEDTYPE">
        <walk depart="23646.00" departPos="14.30" arrival="23677.00" arrivalPos="51.49" duration="31.00" routeLength="34.96" timeLoss="4.46" maxSpeed="1.32"/>
        <ride waitingTime="352.00" vehicle="taxi38" depart="24029.00" arrival="24325.00" arrivalPos="14.90" duration="296.00" routeLength="2333.45" timeLoss="44.85"/>
        <walk depart="24325.00" departPos="14.90" arrival="24345.00" arrivalPos="6.30" duration="20.00" routeLength="32.27" timeLoss="-4.50" maxSpeed="1.32"/>
    </personinfo>