<?xml version="1.0" encoding="UTF-8"?>

<!-- generated by Eclipse SUMO sumo Version 1.12.0
<configuration xmlns:xsi="http://www.w3.org/2001/XMLSchema-instance" xsi:noNamespaceSchemaLocation="http://sumo.dlr.de/xsd/sumoConfiguration.xsd">

    <input>
        <net-file value="D:\Dokumente\sumo\maloja\simple.net.xml"/>
        <route-files value="D:\Dokumente\sumo\maloja\09_daytrips\persontrips_maloja_daytrips_resolved_offseason_taxi.rou.xml,D:\Dokumente\sumo\maloja\11_hotel\persontrips_maloja_hotel_resolved_offseason_taxi.rou.xml,D:\Dokumente\sumo\maloja\12_non_hotel\persontrips_maloja_non_hotel_resolved_offseason_taxi.rou.xml,D:\Dokumente\sumo\maloja\13_private\persontrips_maloja_private_resolved_offseason_taxi.rou.xml"/>
        <additional-files value="D:\Dokumente\sumo\maloja\03_bus\virtualstop.add.xml,D:\Dokumente\sumo\maloja\03_bus\03_November\gtfs_pt_stops.add.xml,drt_fleet.xml,drt_parking.add.xml,drt_parking_rerouter.add.xml"/>
    </input>

    <output>
        <tripinfo-output value="tripinfos_drt.xml"/>
        <tripinfo-output.write-unfinished value="true"/>
        <stop-output value="stopinfos_drt.xml"/>
        <statistic-output value="stats_drt.xml"/>
    </output>

    <time>
        <begin value="20520"/>
        <end value="77400"/>
    </time>

    <routing>
        <routing-algorithm value="CH"/>
        <persontrip.transfer.taxi-walk value="ptStops"/>
        <persontrip.transfer.walk-taxi value="ptStops"/>
    </routing>

    <report>
        <verbose value="true"/>
        <log value="simulation.log.txt"/>
        <error-log value="sumo_error.log"/>
        <duration-log.statistics value="true"/>
    </report>

    <taxi_device>
        <device.taxi.dispatch-algorithm value="traci"/>
    </taxi_device>

    <traci_server>
        <remote-port value="58253"/>
    </traci_server>

</configuration>
-->

<tripinfos xmlns:xsi="http://www.w3.org/2001/XMLSchema-instance" xsi:noNamespaceSchemaLocation="http://sumo.dlr.de/xsd/tripinfo_file.xsd">
    <personinfo id="d128" depart="28979.52" type="DEFAULT_PEDTYPE">
        <walk depart="28980.00" departPos="15.62" arrival="28984.00" arrivalPos="10.00" duration="4.00" routeLength="5.62" timeLoss="0.39" maxSpeed="1.56"/>
        <ride waitingTime="35.00" vehicle="taxi9" depart="29019.00" arrival="29214.00" arrivalPos="45.55" duration="195.00" routeLength="2626.38" timeLoss="24.23"/>
        <walk depart="29214.00" departPos="45.55" arrival="29596.00" arrivalPos="105.14" duration="382.00" routeLength="553.33" timeLoss="26.44" maxSpeed="1.56"/>
    </personinfo>
    <personinfo id="d92" depart="29122.82" type="DEFAULT_PEDTYPE">
        <walk depart="29123.00" departPos="3.38" arrival="29133.00" arrivalPos="15.00" duration="10.00" routeLength="11.62" timeLoss="1.62" maxSpeed="1.39"/>
        <ride waitingTime="36.00" vehicle="taxi36" depart="29169.00" arrival="29574.00" arrivalPos="13.24" duration="405.00" routeLength="6663.45" timeLoss="42.22"/>
        <walk depart="29574.00" departPos="13.24" arrival="29613.00" arrivalPos="0.67" duration="39.00" routeLength="47.62" timeLoss="4.65" maxSpeed="1.39"/>
    </personinfo>
    <personinfo id="d89" depart="29197.95" type="DEFAULT_PEDTYPE">
        <walk depart="29198.00" departPos="27.85" arrival="29210.00" arrivalPos="15.00" duration="12.00" routeLength="12.85" timeLoss="1.47" maxSpeed="1.22"/>
        <ride waitingTime="47.00" vehicle="taxi45" depart="29257.00" arrival="29656.00" arrivalPos="524.38" duration="399.00" routeLength="7115.34" timeLoss="49.03"/>
        <walk depart="29656.00" departPos="524.38" arrival="29689.00" arrivalPos="23.98" duration="33.00" routeLength="38.11" timeLoss="1.76" maxSpeed="1.22"/>
    </personinfo>
    <personinfo id="th122" depart="28979.52" type="DEFAULT_PEDTYPE">
        <walk depart="28980.00" departPos="29.65" arrival="28991.00" arrivalPos="18.71" duration="11.00" routeLength="10.94" timeLoss="2.42" maxSpeed="1.28"/>
        <ride waitingTime="52.00" vehicle="taxi19" depart="29043.00" arrival="29398.00" arrivalPos="45.55" duration="355.00" routeLength="3973.00" timeLoss="37.29"/>
        <walk depart="29398.00" departPos="45.55" arrival="29864.00" arrivalPos="105.14" duration="466.00" routeLength="553.33" timeLoss="32.05" maxSpeed="1.28"/>
    </personinfo>
    <personinfo id="th83" depart="29197.95" type="DEFAULT_PEDTYPE">
        <walk depart="29198.00" departPos="101.56" arrival="29294.00" arrivalPos="23.94" duration="96.00" routeLength="162.89" timeLoss="-6.18" maxSpeed="1.59"/>
        <ride waitingTime="125.00" vehicle="taxi20" depart="29419.00" arrival="29883.00" arrivalPos="15.00" duration="464.00" routeLength="8604.64" timeLoss="51.12"/>
        <walk depart="29883.00" departPos="15.00" arrival="29895.00" arrivalPos="1.99" duration="12.00" routeLength="20.20" timeLoss="-0.67" maxSpeed="1.59"/>
    </personinfo>
    <personinfo id="tp83" depart="29197.95" type="DEFAULT_PEDTYPE">
        <walk depart="29198.00" departPos="120.67" arrival="29291.00" arrivalPos="23.94" duration="93.00" routeLength="143.77" timeLoss="-8.29" maxSpeed="1.42"/>
        <ride waitingTime="86.00" vehicle="taxi20" depart="29377.00" arrival="29883.00" arrivalPos="15.00" duration="506.00" routeLength="8976.22" timeLoss="64.37"/>
        <walk depart="29883.00" departPos="15.00" arrival="29897.00" arrivalPos="1.99" duration="14.00" routeLength="20.20" timeLoss="-0.23" maxSpeed="1.42"/>
    </personinfo>
    <personinfo id="tp122" depart="28979.52" type="DEFAULT_PEDTYPE">
        <walk depart="28980.00" departPos="29.18" arrival="28990.00" arrivalPos="18.71" duration="10.00" routeLength="10.47" timeLoss="1.10" maxSpeed="1.18"/>
        <ride waitingTime="53.00" vehicle="taxi19" depart="29043.00" arrival="29398.00" arrivalPos="45.55" duration="355.00" routeLength="3973.00" timeLoss="37.29"/>
        <walk depart="29398.00" departPos="45.55" arrival="29900.00" arrivalPos="105.14" duration="502.00" routeLength="553.33" timeLoss="31.55" maxSpeed="1.18"/>
    </personinfo>
    <personinfo id="tn81" depart="29197.95" type="DEFAULT_PEDTYPE">
        <walk depart="29198.00" departPos="14.05" arrival="29378.00" arrivalPos="23.94" duration="180.00" routeLength="250.40" timeLoss="0.02" maxSpeed="1.39"/>
        <ride waitingTime="299.00" vehicle="taxi19" depart="29677.00" arrival="29804.00" arrivalPos="25.00" duration="127.00" routeLength="1699.73" timeLoss="21.48"/>
        <walk depart="29804.00" departPos="25.00" arrival="29916.00" arrivalPos="0.24" duration="112.00" routeLength="143.26" timeLoss="9.03" maxSpeed="1.39"/>
    </personinfo>
    <personinfo id="d56" depart="28921.78" type="DEFAULT_PEDTYPE">
        <walk depart="28922.00" departPos="6.52" arrival="28930.00" arrivalPos="15.00" duration="8.00" routeLength="8.48" timeLoss="1.35" maxSpeed="1.28"/>
        <ride waitingTime="61.00" vehicle="taxi9" depart="28991.00" arrival="29717.00" arrivalPos="15.00" duration="726.00" routeLength="10673.22" timeLoss="86.60"/>
        <walk depart="29717.00" departPos="15.00" arrival="30059.00" arrivalPos="62.06" duration="342.00" routeLength="452.97" timeLoss="-13.05" maxSpeed="1.28"/>
    </personinfo>
    <personinfo id="tn85" depart="28889.60" type="DEFAULT_PEDTYPE">
        <walk depart="28890.00" departPos="26.86" arrival="29303.00" arrivalPos="553.86" duration="413.00" routeLength="551.68" timeLoss="45.34" maxSpeed="1.50"/>
        <ride waitingTime="529.00" vehicle="taxi36" depart="29832.00" arrival="30059.00" arrivalPos="25.00" duration="227.00" routeLength="3011.61" timeLoss="32.75"/>
        <walk depart="30059.00" departPos="25.00" arrival="30060.00" arrivalPos="25.50" duration="1.00" routeLength="0.50" timeLoss="0.67" maxSpeed="1.50"/>
    </personinfo>
    <personinfo id="d136" depart="29903.27" type="DEFAULT_PEDTYPE">
        <walk depart="29904.00" departPos="3.75" arrival="29914.00" arrivalPos="15.00" duration="10.00" routeLength="11.25" timeLoss="1.54" maxSpeed="1.33"/>
        <ride waitingTime="188.00" vehicle="taxi36" depart="30102.00" arrival="30376.00" arrivalPos="25.48" duration="274.00" routeLength="3577.61" timeLoss="39.90"/>
        <walk depart="30376.00" departPos="25.48" arrival="30620.00" arrivalPos="1.56" duration="244.00" routeLength="307.54" timeLoss="12.76" maxSpeed="1.33"/>
    </personinfo>
    <personinfo id="th138" depart="30205.95" type="DEFAULT_PEDTYPE">
        <walk depart="30206.00" departPos="2.73" arrival="30214.00" arrivalPos="5.29" duration="8.00" routeLength="27.94" timeLoss="-14.01" maxSpeed="1.27"/>
        <ride waitingTime="129.00" vehicle="taxi65" depart="30343.00" arrival="30652.00" arrivalPos="20.00" duration="309.00" routeLength="4379.33" timeLoss="49.72"/>
        <walk depart="30652.00" departPos="20.00" arrival="30653.00" arrivalPos="20.38" duration="1.00" routeLength="0.38" timeLoss="0.70" maxSpeed="1.27"/>
    </personinfo>
    <personinfo id="tp138" depart="30205.95" type="DEFAULT_PEDTYPE">
        <walk depart="30206.00" departPos="2.46" arrival="30212.00" arrivalPos="5.29" duration="6.00" routeLength="27.67" timeLoss="-13.10" maxSpeed="1.45"/>
        <ride waitingTime="131.00" vehicle="taxi65" depart="30343.00" arrival="30652.00" arrivalPos="20.00" duration="309.00" routeLength="4379.33" timeLoss="49.72"/>
        <walk depart="30652.00" departPos="20.00" arrival="30653.00" arrivalPos="20.38" duration="1.00" routeLength="0.38" timeLoss="0.74" maxSpeed="1.45"/>
    </personinfo>
    <personinfo id="th32" depart="28958.69" type="DEFAULT_PEDTYPE">
        <walk depart="28959.00" departPos="53.62" arrival="28991.00" arrivalPos="15.53" duration="32.00" routeLength="38.09" timeLoss="4.16" maxSpeed="1.37"/>
        <ride waitingTime="337.00" vehicle="taxi47" depart="29328.00" arrival="30661.00" arrivalPos="6.18" duration="1333.00" routeLength="24310.70" timeLoss="79.57"/>
        <walk depart="30661.00" departPos="6.18" arrival="30681.00" arrivalPos="24.95" duration="20.00" routeLength="41.80" timeLoss="-10.56" maxSpeed="1.37"/>
    </personinfo>
    <personinfo id="tp32" depart="28958.69" type="DEFAULT_PEDTYPE">
        <walk depart="28959.00" departPos="49.98" arrival="28988.00" arrivalPos="15.53" duration="29.00" routeLength="34.45" timeLoss="3.74" maxSpeed="1.36"/>
        <ride waitingTime="266.00" vehicle="taxi47" depart="29254.00" arrival="30661.00" arrivalPos="6.18" duration="1407.00" routeLength="24785.41" timeLoss="92.61"/>
        <walk depart="30661.00" departPos="6.18" arrival="30683.00" arrivalPos="24.95" duration="22.00" routeLength="41.80" timeLoss="-8.65" maxSpeed="1.36"/>
    </personinfo>
    <personinfo id="tn32" depart="28958.69" type="DEFAULT_PEDTYPE">
        <walk depart="28959.00" departPos="12.01" arrival="28962.00" arrivalPos="15.53" duration="3.00" routeLength="3.52" timeLoss="0.52" maxSpeed="1.42"/>
        <ride waitingTime="292.00" vehicle="taxi47" depart="29254.00" arrival="30661.00" arrivalPos="6.18" duration="1407.00" routeLength="24785.41" timeLoss="92.61"/>
        <walk depart="30661.00" departPos="6.18" arrival="30686.00" arrivalPos="19.95" duration="25.00" routeLength="46.80" timeLoss="-7.97" maxSpeed="1.42"/>
    </personinfo>
    <personinfo id="th129" depart="29903.27" type="DEFAULT_PEDTYPE">
        <walk depart="29904.00" departPos="23.15" arrival="30353.00" arrivalPos="184.55" duration="449.00" routeLength="459.58" timeLoss="47.90" maxSpeed="1.15"/>
        <ride waitingTime="221.00" vehicle="taxi56" depart="30574.00" arrival="30770.00" arrivalPos="25.00" duration="196.00" routeLength="2638.42" timeLoss="31.63"/>
        <walk depart="30770.00" departPos="25.00" arrival="30793.00" arrivalPos="1.24" duration="23.00" routeLength="23.76" timeLoss="2.26" maxSpeed="1.15"/>
    </personinfo>
    <personinfo id="tp129" depart="29903.27" type="DEFAULT_PEDTYPE">
        <walk depart="29904.00" departPos="25.77" arrival="30354.00" arrivalPos="184.55" duration="450.00" routeLength="462.21" timeLoss="150.22" maxSpeed="1.54"/>
        <ride waitingTime="220.00" vehicle="taxi56" depart="30574.00" arrival="30770.00" arrivalPos="25.00" duration="196.00" routeLength="2638.42" timeLoss="31.63"/>
        <walk depart="30770.00" departPos="25.00" arrival="30794.00" arrivalPos="1.24" duration="24.00" routeLength="23.76" timeLoss="8.59" maxSpeed="1.54"/>
    </personinfo>
    <personinfo id="d145" depart="30205.95" type="DEFAULT_PEDTYPE">
        <walk depart="30206.00" departPos="19.94" arrival="30211.00" arrivalPos="15.00" duration="5.00" routeLength="4.94" timeLoss="1.34" maxSpeed="1.35"/>
        <ride waitingTime="416.00" vehicle="taxi65" depart="30627.00" arrival="30854.00" arrivalPos="53.58" duration="227.00" routeLength="1742.93" timeLoss="35.21"/>
        <walk depart="30854.00" departPos="53.58" arrival="30946.00" arrivalPos="18.64" duration="92.00" routeLength="43.59" timeLoss="59.66" maxSpeed="1.35"/>
    </personinfo>
    <personinfo id="d66" depart="30056.12" type="DEFAULT_PEDTYPE">
        <walk depart="30057.00" departPos="15.57" arrival="30058.00" arrivalPos="15.00" duration="1.00" routeLength="0.57" timeLoss="0.64" maxSpeed="1.59"/>
        <ride waitingTime="71.00" vehicle="taxi36" depart="30129.00" arrival="30921.00" arrivalPos="34.99" duration="792.00" routeLength="11755.52" timeLoss="87.70"/>
        <walk depart="30921.00" departPos="34.99" arrival="30956.00" arrivalPos="14.16" duration="35.00" routeLength="52.37" timeLoss="2.00" maxSpeed="1.59"/>
    </personinfo>
    <personinfo id="d115" depart="30649.67" type="DEFAULT_PEDTYPE">
        <walk depart="30650.00" departPos="20.57" arrival="30655.00" arrivalPos="15.00" duration="5.00" routeLength="5.57" timeLoss="1.23" maxSpeed="1.48"/>
        <ride waitingTime="202.00" vehicle="taxi56" depart="30857.00" arrival="31011.00" arrivalPos="17.26" duration="154.00" routeLength="1680.09" timeLoss="34.19"/>
        <walk depart="31011.00" departPos="17.26" arrival="31061.00" arrivalPos="27.61" duration="50.00" routeLength="78.11" timeLoss="-2.85" maxSpeed="1.48"/>
    </personinfo>
    <personinfo id="tp26" depart="29784.39" type="DEFAULT_PEDTYPE">
        <walk depart="29785.00" departPos="144.50" arrival="30109.00" arrivalPos="2.55" duration="324.00" routeLength="428.74" timeLoss="25.69" maxSpeed="1.44"/>
        <ride waitingTime="50.00" vehicle="taxi17" depart="30159.00" arrival="30447.00" arrivalPos="18.17" duration="288.00" routeLength="4471.13" timeLoss="38.92"/>
        <walk depart="30447.00" departPos="18.17" arrival="31137.00" arrivalPos="36.60" duration="690.00" routeLength="938.96" timeLoss="36.69" maxSpeed="1.44"/>
    </personinfo>
    <personinfo id="th26" depart="29784.39" type="DEFAULT_PEDTYPE">
        <walk depart="29785.00" departPos="8.52" arrival="30065.00" arrivalPos="2.55" duration="280.00" routeLength="292.77" timeLoss="21.40" maxSpeed="1.13"/>
        <ride waitingTime="32.00" vehicle="taxi8" depart="30097.00" arrival="30382.00" arrivalPos="18.17" duration="285.00" routeLength="4471.19" timeLoss="35.22"/>
        <walk depart="30382.00" departPos="18.17" arrival="31253.00" arrivalPos="36.60" duration="871.00" routeLength="938.96" timeLoss="41.60" maxSpeed="1.13"/>
    </personinfo>
    <personinfo id="tn26" depart="29784.39" type="DEFAULT_PEDTYPE">
        <walk depart="29785.00" departPos="147.82" arrival="30134.00" arrivalPos="2.55" duration="349.00" routeLength="432.07" timeLoss="28.61" maxSpeed="1.35"/>
        <ride waitingTime="53.00" vehicle="taxi71" depart="30187.00" arrival="30469.00" arrivalPos="18.17" duration="282.00" routeLength="4471.14" timeLoss="36.36"/>
        <walk depart="30469.00" departPos="18.17" arrival="31254.00" arrivalPos="36.60" duration="785.00" routeLength="938.96" timeLoss="88.73" maxSpeed="1.35"/>
    </personinfo>
    <personinfo id="tn48" depart="30772.95" type="DEFAULT_PEDTYPE">
        <walk depart="30773.00" departPos="5.53" arrival="30832.00" arrivalPos="10.67" duration="59.00" routeLength="60.60" timeLoss="8.08" maxSpeed="1.19"/>
        <ride waitingTime="49.00" vehicle="taxi17" depart="30881.00" arrival="31299.00" arrivalPos="20.00" duration="418.00" routeLength="6731.42" timeLoss="46.32"/>
        <walk depart="31299.00" departPos="20.00" arrival="31317.00" arrivalPos="1.20" duration="18.00" routeLength="18.80" timeLoss="2.20" maxSpeed="1.19"/>
    </personinfo>
    <personinfo id="tp109" depart="30649.67" type="DEFAULT_PEDTYPE">
        <walk depart="30650.00" departPos="4.81" arrival="30936.00" arrivalPos="5.29" duration="286.00" routeLength="341.85" timeLoss="-2.58" maxSpeed="1.18"/>
        <ride waitingTime="123.00" vehicle="taxi11" depart="31059.00" arrival="31308.00" arrivalPos="15.00" duration="249.00" routeLength="3811.60" timeLoss="40.50"/>
        <walk depart="31308.00" departPos="15.00" arrival="31365.00" arrivalPos="14.92" duration="57.00" routeLength="63.55" timeLoss="3.35" maxSpeed="1.18"/>
    </personinfo>
    <personinfo id="th109" depart="30649.67" type="DEFAULT_PEDTYPE">
        <walk depart="30650.00" departPos="8.58" arrival="30876.00" arrivalPos="5.29" duration="226.00" routeLength="338.09" timeLoss="-1.98" maxSpeed="1.48"/>
        <ride waitingTime="391.00" vehicle="taxi56" depart="31267.00" arrival="31533.00" arrivalPos="15.00" duration="266.00" routeLength="3810.80" timeLoss="43.76"/>
        <walk depart="31533.00" departPos="15.00" arrival="31579.00" arrivalPos="14.92" duration="46.00" routeLength="63.55" timeLoss="3.15" maxSpeed="1.48"/>
    </personinfo>
    <personinfo id="tn68" depart="30891.43" type="DEFAULT_PEDTYPE">
        <walk depart="30892.00" departPos="0.12" arrival="30897.00" arrivalPos="6.12" duration="5.00" routeLength="8.92" timeLoss="-1.12" maxSpeed="1.46"/>
        <ride waitingTime="487.00" vehicle="taxi36" depart="31384.00" arrival="31573.00" arrivalPos="109.72" duration="189.00" routeLength="2670.24" timeLoss="46.90"/>
        <walk depart="31573.00" departPos="109.72" arrival="31617.00" arrivalPos="0.15" duration="44.00" routeLength="56.08" timeLoss="5.53" maxSpeed="1.46"/>
    </personinfo>
    <personinfo id="d57" depart="30960.73" type="DEFAULT_PEDTYPE">
        <walk depart="30961.00" departPos="21.40" arrival="30967.00" arrivalPos="15.00" duration="6.00" routeLength="6.40" timeLoss="0.93" maxSpeed="1.26"/>
        <ride waitingTime="62.00" vehicle="taxi63" depart="31029.00" arrival="31623.00" arrivalPos="15.00" duration="594.00" routeLength="10571.48" timeLoss="63.94"/>
        <walk depart="31623.00" departPos="15.00" arrival="31629.00" arrivalPos="21.47" duration="6.00" routeLength="6.47" timeLoss="0.87" maxSpeed="1.26"/>
    </personinfo>
    <personinfo id="th153" depart="30962.87" type="DEFAULT_PEDTYPE">
        <walk depart="30963.00" departPos="70.83" arrival="31507.00" arrivalPos="184.55" duration="544.00" routeLength="712.58" timeLoss="37.57" maxSpeed="1.41"/>
        <ride waitingTime="192.00" vehicle="taxi38" depart="31699.00" arrival="31876.00" arrivalPos="25.00" duration="177.00" routeLength="2643.35" timeLoss="28.41"/>
        <walk depart="31876.00" departPos="25.00" arrival="31897.00" arrivalPos="0.17" duration="21.00" routeLength="24.83" timeLoss="3.35" maxSpeed="1.41"/>
    </personinfo>
    <personinfo id="th65" depart="29217.29" type="DEFAULT_PEDTYPE">
        <walk depart="29218.00" departPos="1.42" arrival="29842.00" arrivalPos="18.71" duration="624.00" routeLength="710.39" timeLoss="37.84" maxSpeed="1.21"/>
        <ride waitingTime="71.00" vehicle="taxi10" depart="29913.00" arrival="31065.00" arrivalPos="98.33" duration="1152.00" routeLength="19752.25" timeLoss="94.19"/>
        <walk depart="31065.00" departPos="98.33" arrival="31911.00" arrivalPos="16.12" duration="846.00" routeLength="934.66" timeLoss="74.78" maxSpeed="1.21"/>
    </personinfo>
    <personinfo id="tp65" depart="29217.29" type="DEFAULT_PEDTYPE">
        <walk depart="29218.00" departPos="2.70" arrival="29841.00" arrivalPos="18.71" duration="623.00" routeLength="709.11" timeLoss="22.79" maxSpeed="1.18"/>
        <ride waitingTime="42.00" vehicle="taxi10" depart="29883.00" arrival="31065.00" arrivalPos="98.33" duration="1182.00" routeLength="19864.31" timeLoss="103.27"/>
        <walk depart="31065.00" departPos="98.33" arrival="31935.00" arrivalPos="16.12" duration="870.00" routeLength="934.66" timeLoss="78.87" maxSpeed="1.18"/>
    </personinfo>
    <personinfo id="tp153" depart="30962.87" type="DEFAULT_PEDTYPE">
        <walk depart="30963.00" departPos="69.24" arrival="31441.00" arrivalPos="184.55" duration="478.00" routeLength="710.99" timeLoss="34.50" maxSpeed="1.60"/>
        <ride waitingTime="418.00" vehicle="taxi56" depart="31859.00" arrival="32050.00" arrivalPos="25.00" duration="191.00" routeLength="2642.55" timeLoss="27.05"/>
        <walk depart="32050.00" departPos="25.00" arrival="32067.00" arrivalPos="0.17" duration="17.00" routeLength="24.83" timeLoss="1.51" maxSpeed="1.60"/>
    </personinfo>
    <personinfo id="th89" depart="31346.34" type="DEFAULT_PEDTYPE">
        <walk depart="31347.00" departPos="48.26" arrival="31439.00" arrivalPos="9.76" duration="92.00" routeLength="130.58" timeLoss="1.69" maxSpeed="1.45"/>
        <ride waitingTime="100.00" vehicle="taxi65" depart="31539.00" arrival="32106.00" arrivalPos="34.99" duration="567.00" routeLength="9565.63" timeLoss="64.66"/>
        <walk depart="32106.00" departPos="34.99" arrival="32142.00" arrivalPos="12.82" duration="36.00" routeLength="51.03" timeLoss="0.71" maxSpeed="1.45"/>
    </personinfo>
    <personinfo id="d141" depart="31854.41" type="DEFAULT_PEDTYPE">
        <walk depart="31855.00" departPos="21.57" arrival="31866.00" arrivalPos="10.00" duration="11.00" routeLength="11.57" timeLoss="1.64" maxSpeed="1.24"/>
        <ride waitingTime="95.00" vehicle="taxi38" depart="31961.00" arrival="32106.00" arrivalPos="33.59" duration="145.00" routeLength="1872.25" timeLoss="25.22"/>
        <walk depart="32106.00" departPos="33.59" arrival="32172.00" arrivalPos="36.77" duration="66.00" routeLength="76.07" timeLoss="4.45" maxSpeed="1.24"/>
    </personinfo>
    <personinfo id="tp89" depart="31346.34" type="DEFAULT_PEDTYPE">
        <walk depart="31347.00" departPos="1.86" arrival="31510.00" arrivalPos="9.76" duration="163.00" routeLength="176.99" timeLoss="8.73" maxSpeed="1.15"/>
        <ride waitingTime="124.00" vehicle="taxi29" depart="31634.00" arrival="32187.00" arrivalPos="34.99" duration="553.00" routeLength="9566.43" timeLoss="62.96"/>
        <walk depart="32187.00" departPos="34.99" arrival="32234.00" arrivalPos="12.82" duration="47.00" routeLength="51.03" timeLoss="2.52" maxSpeed="1.15"/>
    </personinfo>
    <personinfo id="th156" depart="31417.42" type="DEFAULT_PEDTYPE">
        <walk depart="31418.00" departPos="7.44" arrival="31433.00" arrivalPos="7.50" duration="15.00" routeLength="25.82" timeLoss="-7.55" maxSpeed="1.15"/>
        <ride waitingTime="634.00" vehicle="taxi50" depart="32067.00" arrival="32233.00" arrivalPos="25.00" duration="166.00" routeLength="1497.64" timeLoss="25.85"/>
        <walk depart="32233.00" departPos="25.00" arrival="32245.00" arrivalPos="13.22" duration="12.00" routeLength="11.78" timeLoss="1.71" maxSpeed="1.15"/>
    </personinfo>
    <personinfo id="tp156" depart="31417.42" type="DEFAULT_PEDTYPE">
        <walk depart="31418.00" departPos="5.07" arrival="31428.00" arrivalPos="7.50" duration="10.00" routeLength="23.46" timeLoss="-6.11" maxSpeed="1.46"/>
        <ride waitingTime="484.00" vehicle="taxi50" depart="31912.00" arrival="32233.00" arrivalPos="25.00" duration="321.00" routeLength="2916.34" timeLoss="47.30"/>
        <walk depart="32233.00" departPos="25.00" arrival="32245.00" arrivalPos="13.22" duration="12.00" routeLength="11.78" timeLoss="3.91" maxSpeed="1.46"/>
    </personinfo>
    <personinfo id="th63" depart="30915.84" type="DEFAULT_PEDTYPE">
        <walk depart="30916.00" departPos="22.40" arrival="31280.00" arrivalPos="87.83" duration="364.00" routeLength="529.17" timeLoss="29.82" maxSpeed="1.58"/>
        <ride waitingTime="174.00" vehicle="taxi17" depart="31454.00" arrival="32331.00" arrivalPos="15.00" duration="877.00" routeLength="16291.90" timeLoss="71.65"/>
        <walk depart="32331.00" departPos="15.00" arrival="32413.00" arrivalPos="7.10" duration="82.00" routeLength="119.44" timeLoss="6.57" maxSpeed="1.58"/>
    </personinfo>
    <personinfo id="d35" depart="31079.74" type="DEFAULT_PEDTYPE">
        <walk depart="31080.00" departPos="1.19" arrival="31092.00" arrivalPos="15.00" duration="12.00" routeLength="13.81" timeLoss="1.27" maxSpeed="1.29"/>
        <ride waitingTime="236.00" vehicle="taxi17" depart="31328.00" arrival="32331.00" arrivalPos="15.00" duration="1003.00" routeLength="17522.80" timeLoss="95.73"/>
        <walk depart="32331.00" departPos="15.00" arrival="32480.00" arrivalPos="1.00" duration="149.00" routeLength="212.89" timeLoss="-16.39" maxSpeed="1.29"/>
    </personinfo>
    <personinfo id="tp146" depart="32072.04" type="DEFAULT_PEDTYPE">
        <walk depart="32073.00" departPos="95.68" arrival="32145.00" arrivalPos="7.50" duration="72.00" routeLength="88.18" timeLoss="7.87" maxSpeed="1.38"/>
        <ride waitingTime="150.00" vehicle="taxi38" depart="32295.00" arrival="32493.00" arrivalPos="25.00" duration="198.00" routeLength="2295.31" timeLoss="25.08"/>
        <walk depart="32493.00" departPos="25.00" arrival="32503.00" arrivalPos="12.94" duration="10.00" routeLength="12.06" timeLoss="1.23" maxSpeed="1.38"/>
    </personinfo>
    <personinfo id="th146" depart="32072.04" type="DEFAULT_PEDTYPE">
        <walk depart="32073.00" departPos="51.63" arrival="32105.00" arrivalPos="7.50" duration="32.00" routeLength="44.13" timeLoss="3.15" maxSpeed="1.53"/>
        <ride waitingTime="257.00" vehicle="taxi27" depart="32362.00" arrival="32576.00" arrivalPos="25.00" duration="214.00" routeLength="2294.51" timeLoss="28.17"/>
        <walk depart="32576.00" departPos="25.00" arrival="32585.00" arrivalPos="12.94" duration="9.00" routeLength="12.06" timeLoss="1.12" maxSpeed="1.53"/>
    </personinfo>
    <personinfo id="d91" depart="32165.36" type="DEFAULT_PEDTYPE">
        <walk depart="32166.00" departPos="9.46" arrival="32171.00" arrivalPos="15.00" duration="5.00" routeLength="5.54" timeLoss="1.24" maxSpeed="1.48"/>
        <ride waitingTime="56.00" vehicle="taxi0" depart="32227.00" arrival="32694.00" arrivalPos="23.03" duration="467.00" routeLength="6651.72" timeLoss="79.80"/>
        <walk depart="32694.00" departPos="23.03" arrival="32797.00" arrivalPos="33.80" duration="103.00" routeLength="138.69" timeLoss="9.00" maxSpeed="1.48"/>
    </personinfo>
    <personinfo id="tn50" depart="30960.73" type="DEFAULT_PEDTYPE">
        <walk depart="30961.00" departPos="20.74" arrival="30966.00" arrivalPos="15.00" duration="5.00" routeLength="5.74" timeLoss="1.08" maxSpeed="1.46"/>
        <ride waitingTime="34.00" vehicle="taxi63" depart="31000.00" arrival="32773.00" arrivalPos="6.08" duration="1773.00" routeLength="31544.85" timeLoss="141.93"/>
        <walk depart="32773.00" departPos="6.08" arrival="32799.00" arrivalPos="3.92" duration="26.00" routeLength="32.16" timeLoss="4.04" maxSpeed="1.46"/>
    </personinfo>
    <personinfo id="d135" depart="32308.99" type="DEFAULT_PEDTYPE">
        <walk depart="32309.00" departPos="28.51" arrival="32325.00" arrivalPos="15.00" duration="16.00" routeLength="13.51" timeLoss="1.77" maxSpeed="0.95"/>
        <ride waitingTime="175.00" vehicle="taxi38" depart="32500.00" arrival="32668.00" arrivalPos="95.33" duration="168.00" routeLength="1480.13" timeLoss="50.74"/>
        <walk depart="32668.00" departPos="95.33" arrival="32899.00" arrivalPos="46.41" duration="231.00" routeLength="252.67" timeLoss="-35.14" maxSpeed="0.95"/>
    </personinfo>
    <personinfo id="d100" depart="32367.26" type="DEFAULT_PEDTYPE">
        <walk depart="32368.00" departPos="26.44" arrival="32378.00" arrivalPos="15.00" duration="10.00" routeLength="11.44" timeLoss="1.73" maxSpeed="1.38"/>
        <ride waitingTime="30.00" vehicle="taxi50" depart="32408.00" arrival="32843.00" arrivalPos="13.24" duration="435.00" routeLength="6674.75" timeLoss="46.74"/>
        <walk depart="32843.00" departPos="13.24" arrival="32907.00" arrivalPos="19.40" duration="64.00" routeLength="91.42" timeLoss="-2.14" maxSpeed="1.38"/>
    </personinfo>
    <personinfo id="d93" depart="32235.74" type="DEFAULT_PEDTYPE">
        <walk depart="32236.00" departPos="10.39" arrival="32240.00" arrivalPos="15.00" duration="4.00" routeLength="4.61" timeLoss="0.80" maxSpeed="1.44"/>
        <ride waitingTime="51.00" vehicle="taxi54" depart="32291.00" arrival="32871.00" arrivalPos="33.91" duration="580.00" routeLength="8352.54" timeLoss="74.68"/>
        <walk depart="32871.00" departPos="33.91" arrival="32935.00" arrivalPos="3.03" duration="64.00" routeLength="20.29" timeLoss="49.89" maxSpeed="1.44"/>
    </personinfo>
    <personinfo id="th106" depart="32394.65" type="DEFAULT_PEDTYPE">
        <walk depart="32395.00" departPos="9.39" arrival="32678.00" arrivalPos="17.78" duration="283.00" routeLength="297.72" timeLoss="18.18" maxSpeed="1.12"/>
        <ride waitingTime="272.00" vehicle="NULL" depart="-1" arrival="32950.00" arrivalPos="25.83" duration="32950.00" routeLength="-1.00" timeLoss="-0.00"/>
        <stop duration="0.00" arrival="32950.00" arrivalPos="24.88" actType="last stage removed"/>
    </personinfo>
    <personinfo id="tp106" depart="32394.65" type="DEFAULT_PEDTYPE">
        <walk depart="32395.00" departPos="76.66" arrival="32687.00" arrivalPos="17.78" duration="292.00" routeLength="364.99" timeLoss="19.41" maxSpeed="1.34"/>
        <ride waitingTime="263.00" vehicle="NULL" depart="-1" arrival="32950.00" arrivalPos="25.83" duration="32950.00" routeLength="-1.00" timeLoss="-0.00"/>
        <stop duration="0.00" arrival="32950.00" arrivalPos="24.08" actType="last stage removed"/>
    </personinfo>
    <personinfo id="tp63" depart="30915.84" type="DEFAULT_PEDTYPE">