<?xml version="1.0" encoding="UTF-8"?>

<!-- generated on by Eclipse SUMO sumo Version 1.12.0
<configuration xmlns:xsi="http://www.w3.org/2001/XMLSchema-instance" xsi:noNamespaceSchemaLocation="http://sumo.dlr.de/xsd/sumoConfiguration.xsd">

    <input>
        <net-file value="D:\Dokumente\sumo\2026-03-29-23-23-13\simple.net.xml"/>
        <route-files value="D:\Dokumente\sumo\2026-03-29-23-23-13\09_daytrips\persontrips_maloja_daytrips_resolved_offseason_taxi.rou.xml,D:\Dokumente\sumo\2026-03-29-23-23-13\11_hotel\persontrips_maloja_hotel_resolved_offseason_taxi.rou.xml,D:\Dokumente\sumo\2026-03-29-23-23-13\12_non_hotel\persontrips_maloja_non_hotel_resolved_offseason_taxi.rou.xml,D:\Dokumente\sumo\2026-03-29-23-23-13\13_private\persontrips_maloja_private_resolved_offseason_taxi.rou.xml"/>
        <additional-files value="D:\Dokumente\sumo\2026-03-29-23-23-13\03_bus\virtualstop.add.xml,D:\Dokumente\sumo\2026-03-29-23-23-13\03_bus\03_November\gtfs_pt_stops.add.xml,drt_fleet.xml,drt_parking.add.xml,drt_parking_rerouter.add.xml"/>
    </input>

    <output>
        <tripinfo-output value="tripinfos_drt.xml"/>
        <tripinfo-output.write-unfinished value="true"/>
        <stop-output value="stopinfos_drt.xml"/>
        <statistic-output value="stats_drt.xml"/>
    </output>

    <time>
        <begin value="20520"/>
        <end value="77400"/>
    </time>

    <routing>
        <routing-algorithm value="CH"/>
        <persontrip.transfer.taxi-walk value="ptStops"/>
        <persontrip.transfer.walk-taxi value="ptStops"/>
    </routing>

    <report>
        <verbose value="true"/>
        <log value="simulation.log.txt"/>
        <error-log value="sumo_error.log"/>
        <duration-log.statistics value="true"/>
    </report>

    <taxi_device>
        <device.taxi.dispatch-algorithm value="traci"/>
    </taxi_device>

    <traci_server>
        <remote-port value="50672"/>
    </traci_server>

</configuration>
-->

<tripinfos xmlns:xsi="http://www.w3.org/2001/XMLSchema-instance" xsi:noNamespaceSchemaLocation="http://sumo.dlr.de/xsd/tripinfo_file.xsd">
    <personinfo id="d92" depart="29122.82" type="DEFAULT_PEDTYPE">
        <walk depart="29123.00" departPos="6.82" arrival="29129.00" arrivalPos="15.00" duration="6.00" routeLength="8.18" timeLoss="0.63" maxSpeed="1.52"/>
        <ride waitingTime="40.00" vehicle="taxi90" depart="29169.00" arrival="29567.00" arrivalPos="13.24" duration="398.00" routeLength="6663.45" timeLoss="42.73"/>
        <walk depart="29567.00" departPos="13.24" arrival="29603.00" arrivalPos="0.67" duration="36.00" routeLength="47.62" timeLoss="4.73" maxSpeed="1.52"/>
    </personinfo>
    <personinfo id="d89" depart="29197.95" type="DEFAULT_PEDTYPE">
        <walk depart="29198.00" departPos="18.93" arrival="29201.00" arrivalPos="15.00" duration="3.00" routeLength="3.93" timeLoss="0.69" maxSpeed="1.70"/>
        <ride waitingTime="56.00" vehicle="taxi99" depart="29257.00" arrival="29652.00" arrivalPos="524.38" duration="395.00" routeLength="7115.34" timeLoss="46.66"/>
        <walk depart="29652.00" departPos="524.38" arrival="29675.00" arrivalPos="23.98" duration="23.00" routeLength="38.11" timeLoss="0.60" maxSpeed="1.70"/>
    </personinfo>
    <personinfo id="tn85" depart="28889.60" type="DEFAULT_PEDTYPE">
        <walk depart="28890.00" departPos="3.00" arrival="29231.00" arrivalPos="553.86" duration="341.00" routeLength="527.82" timeLoss="36.50" maxSpeed="1.73"/>
        <ride waitingTime="365.00" vehicle="taxi73" depart="29596.00" arrival="29816.00" arrivalPos="25.00" duration="220.00" routeLength="3011.61" timeLoss="33.66"/>
        <walk depart="29816.00" departPos="25.00" arrival="29817.00" arrivalPos="25.50" duration="1.00" routeLength="0.50" timeLoss="0.71" maxSpeed="1.73"/>
    </personinfo>
    <personinfo id="th122" depart="28979.52" type="DEFAULT_PEDTYPE">
        <walk depart="28980.00" departPos="20.50" arrival="28982.00" arrivalPos="18.71" duration="2.00" routeLength="1.79" timeLoss="0.68" maxSpeed="1.35"/>
        <ride waitingTime="34.00" vehicle="taxi73" depart="29016.00" arrival="29391.00" arrivalPos="45.55" duration="375.00" routeLength="3977.20" timeLoss="40.40"/>
        <walk depart="29391.00" departPos="45.55" arrival="29831.00" arrivalPos="105.14" duration="440.00" routeLength="553.33" timeLoss="29.46" maxSpeed="1.35"/>
    </personinfo>
    <personinfo id="th83" depart="29197.95" type="DEFAULT_PEDTYPE">
        <walk depart="29198.00" departPos="122.21" arrival="29277.00" arrivalPos="23.94" duration="79.00" routeLength="142.23" timeLoss="-8.00" maxSpeed="1.63"/>
        <ride waitingTime="71.00" vehicle="taxi2" depart="29348.00" arrival="29854.00" arrivalPos="15.00" duration="506.00" routeLength="8976.22" timeLoss="65.48"/>
        <walk depart="29854.00" departPos="15.00" arrival="29866.00" arrivalPos="1.99" duration="12.00" routeLength="20.20" timeLoss="-0.36" maxSpeed="1.63"/>
    </personinfo>
    <personinfo id="tp83" depart="29197.95" type="DEFAULT_PEDTYPE">
        <walk depart="29198.00" departPos="109.18" arrival="29309.00" arrivalPos="23.94" duration="111.00" routeLength="155.26" timeLoss="-7.74" maxSpeed="1.31"/>
        <ride waitingTime="82.00" vehicle="taxi2" depart="29391.00" arrival="29854.00" arrivalPos="15.00" duration="463.00" routeLength="8604.64" timeLoss="51.37"/>
        <walk depart="29854.00" departPos="15.00" arrival="29868.00" arrivalPos="1.99" duration="14.00" routeLength="20.20" timeLoss="-1.45" maxSpeed="1.31"/>
    </personinfo>
    <personinfo id="d56" depart="28921.78" type="DEFAULT_PEDTYPE">
        <walk depart="28922.00" departPos="0.32" arrival="28934.00" arrivalPos="15.00" duration="12.00" routeLength="14.68" timeLoss="1.19" maxSpeed="1.36"/>
        <ride waitingTime="56.00" vehicle="taxi81" depart="28990.00" arrival="29582.00" arrivalPos="15.00" duration="592.00" routeLength="10570.68" timeLoss="66.38"/>
        <walk depart="29582.00" departPos="15.00" arrival="29902.00" arrivalPos="62.06" duration="320.00" routeLength="452.97" timeLoss="-13.66" maxSpeed="1.36"/>
    </personinfo>
    <personinfo id="d128" depart="28979.52" type="DEFAULT_PEDTYPE">
        <walk depart="28980.00" departPos="23.12" arrival="28991.00" arrivalPos="10.00" duration="11.00" routeLength="13.12" timeLoss="1.75" maxSpeed="1.42"/>
        <ride waitingTime="409.00" vehicle="taxi28" depart="29400.00" arrival="29576.00" arrivalPos="45.55" duration="176.00" routeLength="2626.38" timeLoss="27.59"/>
        <walk depart="29576.00" departPos="45.55" arrival="29994.00" arrivalPos="105.14" duration="418.00" routeLength="553.33" timeLoss="27.88" maxSpeed="1.42"/>
    </personinfo>
    <personinfo id="tp122" depart="28979.52" type="DEFAULT_PEDTYPE">
        <walk depart="28980.00" departPos="44.87" arrival="29002.00" arrivalPos="18.71" duration="22.00" routeLength="26.16" timeLoss="2.72" maxSpeed="1.36"/>
        <ride waitingTime="48.00" vehicle="taxi28" depart="29050.00" arrival="29576.00" arrivalPos="45.55" duration="526.00" routeLength="5700.15" timeLoss="72.89"/>
        <walk depart="29576.00" departPos="45.55" arrival="30013.00" arrivalPos="105.14" duration="437.00" routeLength="553.33" timeLoss="29.16" maxSpeed="1.36"/>
    </personinfo>
    <personinfo id="tn81" depart="29197.95" type="DEFAULT_PEDTYPE">
        <walk depart="29198.00" departPos="2.10" arrival="29390.00" arrivalPos="23.94" duration="192.00" routeLength="262.34" timeLoss="1.47" maxSpeed="1.38"/>
        <ride waitingTime="516.00" vehicle="taxi90" depart="29906.00" arrival="30041.00" arrivalPos="25.00" duration="135.00" routeLength="1699.73" timeLoss="21.69"/>
        <walk depart="30041.00" departPos="25.00" arrival="30155.00" arrivalPos="0.24" duration="114.00" routeLength="143.26" timeLoss="9.96" maxSpeed="1.38"/>
    </personinfo>
    <personinfo id="d145" depart="30205.95" type="DEFAULT_PEDTYPE">
        <walk depart="30206.00" departPos="13.48" arrival="30208.00" arrivalPos="15.00" duration="2.00" routeLength="1.52" timeLoss="0.72" maxSpeed="1.18"/>
        <ride waitingTime="41.00" vehicle="taxi54" depart="30249.00" arrival="30384.00" arrivalPos="53.58" duration="135.00" routeLength="1640.39" timeLoss="21.13"/>
        <walk depart="30384.00" departPos="53.58" arrival="30488.00" arrivalPos="18.64" duration="104.00" routeLength="43.59" timeLoss="67.12" maxSpeed="1.18"/>
    </personinfo>
    <personinfo id="d136" depart="29903.27" type="DEFAULT_PEDTYPE">
        <walk depart="29904.00" departPos="20.48" arrival="29908.00" arrivalPos="15.00" duration="4.00" routeLength="5.48" timeLoss="0.76" maxSpeed="1.69"/>
        <ride waitingTime="191.00" vehicle="taxi90" depart="30099.00" arrival="30371.00" arrivalPos="25.48" duration="272.00" routeLength="3577.61" timeLoss="42.17"/>
        <walk depart="30371.00" departPos="25.48" arrival="30564.00" arrivalPos="1.56" duration="193.00" routeLength="307.54" timeLoss="10.79" maxSpeed="1.69"/>
    </personinfo>
    <personinfo id="th129" depart="29903.27" type="DEFAULT_PEDTYPE">
        <walk depart="29904.00" departPos="13.67" arrival="30292.00" arrivalPos="184.55" duration="388.00" routeLength="450.11" timeLoss="40.65" maxSpeed="1.30"/>
        <ride waitingTime="322.00" vehicle="taxi54" depart="30614.00" arrival="30798.00" arrivalPos="25.00" duration="184.00" routeLength="2642.55" timeLoss="28.50"/>
        <walk depart="30798.00" departPos="25.00" arrival="30819.00" arrivalPos="1.24" duration="21.00" routeLength="23.76" timeLoss="2.67" maxSpeed="1.30"/>
    </personinfo>
    <personinfo id="th138" depart="30205.95" type="DEFAULT_PEDTYPE">
        <walk depart="30206.00" departPos="1.84" arrival="30213.00" arrivalPos="5.29" duration="7.00" routeLength="27.05" timeLoss="-10.78" maxSpeed="1.52"/>
        <ride waitingTime="352.00" vehicle="taxi107" depart="30565.00" arrival="30822.00" arrivalPos="20.00" duration="257.00" routeLength="4213.88" timeLoss="30.67"/>
        <walk depart="30822.00" departPos="20.00" arrival="30823.00" arrivalPos="20.38" duration="1.00" routeLength="0.38" timeLoss="0.75" maxSpeed="1.52"/>
    </personinfo>
    <personinfo id="tp138" depart="30205.95" type="DEFAULT_PEDTYPE">
        <walk depart="30206.00" departPos="1.08" arrival="30212.00" arrivalPos="5.29" duration="6.00" routeLength="26.28" timeLoss="-12.67" maxSpeed="1.41"/>
        <ride waitingTime="407.00" vehicle="taxi89" depart="30619.00" arrival="30883.00" arrivalPos="20.00" duration="264.00" routeLength="4213.08" timeLoss="36.62"/>
        <walk depart="30883.00" departPos="20.00" arrival="30884.00" arrivalPos="20.38" duration="1.00" routeLength="0.38" timeLoss="0.73" maxSpeed="1.41"/>
    </personinfo>
    <personinfo id="tp129" depart="29903.27" type="DEFAULT_PEDTYPE">
        <walk depart="29904.00" departPos="32.59" arrival="30293.00" arrivalPos="184.55" duration="389.00" routeLength="469.03" timeLoss="61.95" maxSpeed="1.43"/>
        <ride waitingTime="419.00" vehicle="taxi98" depart="30712.00" arrival="30892.00" arrivalPos="25.00" duration="180.00" routeLength="2643.35" timeLoss="32.92"/>
        <walk depart="30892.00" departPos="25.00" arrival="30911.00" arrivalPos="1.24" duration="19.00" routeLength="23.76" timeLoss="2.43" maxSpeed="1.43"/>
    </personinfo>
    <personinfo id="d66" depart="30056.12" type="DEFAULT_PEDTYPE">
        <walk depart="30057.00" departPos="11.68" arrival="30061.00" arrivalPos="15.00" duration="4.00" routeLength="3.32" timeLoss="0.98" maxSpeed="1.10"/>
        <ride waitingTime="66.00" vehicle="taxi90" depart="30127.00" arrival="30909.00" arrivalPos="34.99" duration="782.00" routeLength="11755.52" timeLoss="90.99"/>
        <walk depart="30909.00" departPos="34.99" arrival="30959.00" arrivalPos="14.16" duration="50.00" routeLength="52.37" timeLoss="2.39" maxSpeed="1.10"/>
    </personinfo>
    <personinfo id="tp26" depart="29784.39" type="DEFAULT_PEDTYPE">
        <walk depart="29785.00" departPos="0.07" arrival="29988.00" arrivalPos="2.55" duration="203.00" routeLength="284.31" timeLoss="16.87" maxSpeed="1.53"/>
        <ride waitingTime="49.00" vehicle="taxi107" depart="30037.00" arrival="30315.00" arrivalPos="18.17" duration="278.00" routeLength="4471.14" timeLoss="39.75"/>
        <walk depart="30315.00" departPos="18.17" arrival="30960.00" arrivalPos="36.60" duration="645.00" routeLength="938.96" timeLoss="30.30" maxSpeed="1.53"/>
    </personinfo>
    <personinfo id="th26" depart="29784.39" type="DEFAULT_PEDTYPE">
        <walk depart="29785.00" departPos="82.10" arrival="30054.00" arrivalPos="2.55" duration="269.00" routeLength="366.35" timeLoss="21.35" maxSpeed="1.48"/>
        <ride waitingTime="44.00" vehicle="taxi89" depart="30098.00" arrival="30374.00" arrivalPos="18.17" duration="276.00" routeLength="4471.18" timeLoss="36.31"/>
        <walk depart="30374.00" departPos="18.17" arrival="31038.00" arrivalPos="36.60" duration="664.00" routeLength="938.96" timeLoss="29.27" maxSpeed="1.48"/>
    </personinfo>
    <personinfo id="d115" depart="30649.67" type="DEFAULT_PEDTYPE">
        <walk depart="30650.00" departPos="9.53" arrival="30655.00" arrivalPos="15.00" duration="5.00" routeLength="5.47" timeLoss="1.13" maxSpeed="1.41"/>
        <ride waitingTime="229.00" vehicle="taxi54" depart="30884.00" arrival="31009.00" arrivalPos="17.26" duration="125.00" routeLength="1533.40" timeLoss="23.73"/>
        <walk depart="31009.00" departPos="17.26" arrival="31060.00" arrivalPos="27.61" duration="51.00" routeLength="78.11" timeLoss="-4.27" maxSpeed="1.41"/>
    </personinfo>
    <personinfo id="tn26" depart="29784.39" type="DEFAULT_PEDTYPE">
        <walk depart="29785.00" departPos="120.23" arrival="30101.00" arrivalPos="2.55" duration="316.00" routeLength="404.48" timeLoss="29.97" maxSpeed="1.41"/>
        <ride waitingTime="56.00" vehicle="taxi98" depart="30157.00" arrival="30423.00" arrivalPos="18.17" duration="266.00" routeLength="4471.16" timeLoss="38.00"/>
        <walk depart="30423.00" departPos="18.17" arrival="31121.00" arrivalPos="36.60" duration="698.00" routeLength="938.96" timeLoss="34.00" maxSpeed="1.41"/>
    </personinfo>
    <personinfo id="tn48" depart="30772.95" type="DEFAULT_PEDTYPE">
        <walk depart="30773.00" departPos="5.80" arrival="30817.00" arrivalPos="10.67" duration="44.00" routeLength="60.88" timeLoss="6.45" maxSpeed="1.62"/>
        <ride waitingTime="82.00" vehicle="taxi99" depart="30899.00" arrival="31288.00" arrivalPos="20.00" duration="389.00" routeLength="6731.42" timeLoss="44.87"/>
        <walk depart="31288.00" departPos="20.00" arrival="31301.00" arrivalPos="1.20" duration="13.00" routeLength="18.80" timeLoss="1.40" maxSpeed="1.62"/>
    </personinfo>
    <personinfo id="th32" depart="28958.69" type="DEFAULT_PEDTYPE">
        <walk depart="28959.00" departPos="48.80" arrival="28985.00" arrivalPos="15.53" duration="26.00" routeLength="33.27" timeLoss="3.51" maxSpeed="1.48"/>
        <ride waitingTime="1077.00" vehicle="taxi81" depart="30062.00" arrival="31330.00" arrivalPos="6.18" duration="1268.00" routeLength="24310.70" timeLoss="76.74"/>
        <walk depart="31330.00" departPos="6.18" arrival="31348.00" arrivalPos="24.95" duration="18.00" routeLength="41.80" timeLoss="-10.27" maxSpeed="1.48"/>
    </personinfo>
    <personinfo id="tn32" depart="28958.69" type="DEFAULT_PEDTYPE">
        <walk depart="28959.00" departPos="20.64" arrival="28963.00" arrivalPos="15.53" duration="4.00" routeLength="5.11" timeLoss="0.75" maxSpeed="1.57"/>
        <ride waitingTime="953.00" vehicle="taxi81" depart="29916.00" arrival="31330.00" arrivalPos="6.18" duration="1414.00" routeLength="25270.00" timeLoss="104.88"/>
        <walk depart="31330.00" departPos="6.18" arrival="31352.00" arrivalPos="19.95" duration="22.00" routeLength="46.80" timeLoss="-7.80" maxSpeed="1.57"/>
    </personinfo>
    <personinfo id="tp32" depart="28958.69" type="DEFAULT_PEDTYPE">
        <walk depart="28959.00" departPos="25.00" arrival="28968.00" arrivalPos="15.53" duration="9.00" routeLength="9.47" timeLoss="1.13" maxSpeed="1.20"/>
        <ride waitingTime="1021.00" vehicle="taxi81" depart="29989.00" arrival="31330.00" arrivalPos="6.18" duration="1341.00" routeLength="24790.35" timeLoss="90.46"/>
        <walk depart="31330.00" departPos="6.18" arrival="31353.00" arrivalPos="24.95" duration="23.00" routeLength="41.80" timeLoss="-11.76" maxSpeed="1.20"/>
    </personinfo>
    <personinfo id="tn68" depart="30891.43" type="DEFAULT_PEDTYPE">
        <walk depart="30892.00" departPos="0.11" arrival="30898.00" arrivalPos="6.12" duration="6.00" routeLength="8.91" timeLoss="0.04" maxSpeed="1.49"/>
        <ride waitingTime="363.00" vehicle="taxi54" depart="31261.00" arrival="31413.00" arrivalPos="109.72" duration="152.00" routeLength="2594.44" timeLoss="30.36"/>
        <walk depart="31413.00" departPos="109.72" arrival="31456.00" arrivalPos="0.15" duration="43.00" routeLength="56.08" timeLoss="5.48" maxSpeed="1.49"/>
    </personinfo>
    <personinfo id="th109" depart="30649.67" type="DEFAULT_PEDTYPE">
        <walk depart="30650.00" departPos="1.23" arrival="30905.00" arrivalPos="5.29" duration="255.00" routeLength="345.44" timeLoss="-0.67" maxSpeed="1.35"/>
        <ride waitingTime="347.00" vehicle="taxi54" depart="31252.00" arrival="31585.00" arrivalPos="15.00" duration="333.00" routeLength="3846.16" timeLoss="56.73"/>
        <walk depart="31585.00" departPos="15.00" arrival="31635.00" arrivalPos="14.92" duration="50.00" routeLength="63.55" timeLoss="2.96" maxSpeed="1.35"/>
    </personinfo>
    <personinfo id="tp109" depart="30649.67" type="DEFAULT_PEDTYPE">
        <walk depart="30650.00" departPos="4.72" arrival="30952.00" arrivalPos="5.29" duration="302.00" routeLength="341.95" timeLoss="-4.68" maxSpeed="1.11"/>
        <ride waitingTime="300.00" vehicle="taxi54" depart="31252.00" arrival="31585.00" arrivalPos="15.00" duration="333.00" routeLength="3846.16" timeLoss="56.73"/>
        <walk depart="31585.00" departPos="15.00" arrival="31646.00" arrivalPos="14.92" duration="61.00" routeLength="63.55" timeLoss="4.00" maxSpeed="1.11"/>
    </personinfo>
    <personinfo id="th156" depart="31417.42" type="DEFAULT_PEDTYPE">
        <walk depart="31418.00" departPos="23.68" arrival="31444.00" arrivalPos="7.50" duration="26.00" routeLength="42.07" timeLoss="-4.58" maxSpeed="1.38"/>
        <ride waitingTime="131.00" vehicle="taxi11" depart="31575.00" arrival="31728.00" arrivalPos="25.00" duration="153.00" routeLength="1492.73" timeLoss="25.27"/>
        <walk depart="31728.00" departPos="25.00" arrival="31738.00" arrivalPos="13.22" duration="10.00" routeLength="11.78" timeLoss="1.44" maxSpeed="1.38"/>
    </personinfo>
    <personinfo id="tp156" depart="31417.42" type="DEFAULT_PEDTYPE">
        <walk depart="31418.00" departPos="8.14" arrival="31431.00" arrivalPos="7.50" duration="13.00" routeLength="26.53" timeLoss="-6.08" maxSpeed="1.39"/>
        <ride waitingTime="144.00" vehicle="taxi11" depart="31575.00" arrival="31728.00" arrivalPos="25.00" duration="153.00" routeLength="1492.73" timeLoss="25.27"/>
        <walk depart="31728.00" departPos="25.00" arrival="31739.00" arrivalPos="13.22" duration="11.00" routeLength="11.78" timeLoss="2.53" maxSpeed="1.39"/>
    </personinfo>
    <personinfo id="d57" depart="30960.73" type="DEFAULT_PEDTYPE">
        <walk depart="30961.00" departPos="15.75" arrival="30962.00" arrivalPos="15.00" duration="1.00" routeLength="0.75" timeLoss="0.46" maxSpeed="1.40"/>
        <ride waitingTime="411.00" vehicle="taxi99" depart="31373.00" arrival="32015.00" arrivalPos="15.00" duration="642.00" routeLength="11106.96" timeLoss="102.32"/>
        <walk depart="32015.00" departPos="15.00" arrival="32020.00" arrivalPos="21.47" duration="5.00" routeLength="6.47" timeLoss="0.37" maxSpeed="1.40"/>
    </personinfo>
    <personinfo id="th153" depart="30962.87" type="DEFAULT_PEDTYPE">
        <walk depart="30963.00" departPos="92.38" arrival="31571.00" arrivalPos="184.55" duration="608.00" routeLength="734.13" timeLoss="43.66" maxSpeed="1.30"/>
        <ride waitingTime="329.00" vehicle="taxi54" depart="31900.00" arrival="32108.00" arrivalPos="25.00" duration="208.00" routeLength="2767.49" timeLoss="39.56"/>
        <walk depart="32108.00" departPos="25.00" arrival="32130.00" arrivalPos="0.17" duration="22.00" routeLength="24.83" timeLoss="2.91" maxSpeed="1.30"/>
    </personinfo>
    <personinfo id="tp153" depart="30962.87" type="DEFAULT_PEDTYPE">
        <walk depart="30963.00" departPos="36.76" arrival="31483.00" arrivalPos="184.55" duration="520.00" routeLength="678.51" timeLoss="38.38" maxSpeed="1.41"/>
        <ride waitingTime="366.00" vehicle="taxi54" depart="31849.00" arrival="32108.00" arrivalPos="25.00" duration="259.00" routeLength="3341.80" timeLoss="62.42"/>
        <walk depart="32108.00" departPos="25.00" arrival="32130.00" arrivalPos="0.17" duration="22.00" routeLength="24.83" timeLoss="4.38" maxSpeed="1.41"/>
    </personinfo>
    <personinfo id="d35" depart="31079.74" type="DEFAULT_PEDTYPE">
        <walk depart="31080.00" departPos="5.79" arrival="31088.00" arrivalPos="15.00" duration="8.00" routeLength="9.21" timeLoss="1.16" maxSpeed="1.35"/>
        <ride waitingTime="31.00" vehicle="taxi89" depart="31119.00" arrival="31992.00" arrivalPos="15.00" duration="873.00" routeLength="16674.26" timeLoss="74.80"/>
        <walk depart="31992.00" departPos="15.00" arrival="32134.00" arrivalPos="1.00" duration="142.00" routeLength="212.89" timeLoss="-16.16" maxSpeed="1.35"/>
    </personinfo>
    <personinfo id="tp89" depart="31346.34" type="DEFAULT_PEDTYPE">
        <walk depart="31347.00" departPos="2.89" arrival="31486.00" arrivalPos="9.76" duration="139.00" routeLength="175.95" timeLoss="5.79" maxSpeed="1.32"/>
        <ride waitingTime="114.00" vehicle="taxi20" depart="31600.00" arrival="32129.00" arrivalPos="34.99" duration="529.00" routeLength="9566.43" timeLoss="61.78"/>
        <walk depart="32129.00" departPos="34.99" arrival="32170.00" arrivalPos="12.82" duration="41.00" routeLength="51.03" timeLoss="2.37" maxSpeed="1.32"/>
    </personinfo>
    <personinfo id="th89" depart="31346.34" type="DEFAULT_PEDTYPE">
        <walk depart="31347.00" departPos="71.86" arrival="31428.00" arrivalPos="9.76" duration="81.00" routeLength="106.98" timeLoss="0.83" maxSpeed="1.33"/>
        <ride waitingTime="262.00" vehicle="taxi107" depart="31690.00" arrival="32213.00" arrivalPos="34.99" duration="523.00" routeLength="9565.63" timeLoss="59.06"/>
        <walk depart="32213.00" departPos="34.99" arrival="32254.00" arrivalPos="12.82" duration="41.00" routeLength="51.03" timeLoss="2.76" maxSpeed="1.33"/>
    </personinfo>
    <personinfo id="d141" depart="31854.41" type="DEFAULT_PEDTYPE">
        <walk depart="31855.00" departPos="17.31" arrival="31860.00" arrivalPos="10.00" duration="5.00" routeLength="7.31" timeLoss="0.56" maxSpeed="1.65"/>
        <ride waitingTime="274.00" vehicle="taxi54" depart="32134.00" arrival="32309.00" arrivalPos="33.59" duration="175.00" routeLength="1996.39" timeLoss="36.26"/>
        <walk depart="32309.00" departPos="33.59" arrival="32359.00" arrivalPos="36.77" duration="50.00" routeLength="76.07" timeLoss="3.79" maxSpeed="1.65"/>
    </personinfo>
    <personinfo id="th146" depart="32072.04" type="DEFAULT_PEDTYPE">
        <walk depart="32073.00" departPos="144.84" arrival="32187.00" arrivalPos="7.50" duration="114.00" routeLength="137.34" timeLoss="11.51" maxSpeed="1.34"/>
        <ride waitingTime="176.00" vehicle="taxi47" depart="32363.00" arrival="32582.00" arrivalPos="25.00" duration="219.00" routeLength="2294.51" timeLoss="28.14"/>
        <walk depart="32582.00" departPos="25.00" arrival="32593.00" arrivalPos="12.94" duration="11.00" routeLength="12.06" timeLoss="2.00" maxSpeed="1.34"/>
    </personinfo>
    <personinfo id="tp146" depart="32072.04" type="DEFAULT_PEDTYPE">
        <walk depart="32073.00" departPos="182.97" arrival="32227.00" arrivalPos="7.50" duration="154.00" routeLength="175.47" timeLoss="14.61" maxSpeed="1.26"/>
        <ride waitingTime="163.00" vehicle="taxi29" depart="32390.00" arrival="32606.00" arrivalPos="25.00" duration="216.00" routeLength="2295.31" timeLoss="27.51"/>
        <walk depart="32606.00" departPos="25.00" arrival="32617.00" arrivalPos="12.94" duration="11.00" routeLength="12.06" timeLoss="1.42" maxSpeed="1.26"/>
    </personinfo>
    <personinfo id="d135" depart="32308.99" type="DEFAULT_PEDTYPE">
        <walk depart="32309.00" departPos="12.03" arrival="32312.00" arrivalPos="15.00" duration="3.00" routeLength="2.97" timeLoss="0.79" maxSpeed="1.35"/>
        <ride waitingTime="38.00" vehicle="taxi63" depart="32350.00" arrival="32474.00" arrivalPos="95.33" duration="124.00" routeLength="1232.10" timeLoss="25.43"/>
        <walk depart="32474.00" departPos="95.33" arrival="32637.00" arrivalPos="46.41" duration="163.00" routeLength="252.67" timeLoss="-24.50" maxSpeed="1.35"/>
    </personinfo>
    <personinfo id="d112" depart="32394.65" type="DEFAULT_PEDTYPE">
        <walk depart="32395.00" departPos="16.30" arrival="32400.00" arrivalPos="10.00" duration="5.00" routeLength="6.30" timeLoss="0.91" maxSpeed="1.54"/>
        <ride waitingTime="36.00" vehicle="taxi45" depart="32436.00" arrival="32600.00" arrivalPos="44.82" duration="164.00" routeLength="2073.74" timeLoss="28.48"/>
        <walk depart="32600.00" departPos="44.82" arrival="32707.00" arrivalPos="2.94" duration="107.00" routeLength="153.54" timeLoss="7.29" maxSpeed="1.54"/>
    </personinfo>
    <personinfo id="d91" depart="32165.36" type="DEFAULT_PEDTYPE">
        <walk depart="32166.00" departPos="14.95" arrival="32167.00" arrivalPos="15.00" duration="1.00" routeLength="0.10" timeLoss="0.93" maxSpeed="1.49"/>
        <ride waitingTime="29.00" vehicle="taxi72" depart="32196.00" arrival="32617.00" arrivalPos="23.03" duration="421.00" routeLength="6519.18" timeLoss="45.26"/>
        <walk depart="32617.00" departPos="23.03" arrival="32718.00" arrivalPos="33.80" duration="101.00" routeLength="138.69" timeLoss="8.11" maxSpeed="1.49"/>
    </personinfo>
    <personinfo id="d144" depart="32585.92" type="DEFAULT_PEDTYPE">
        <walk depart="32586.00" departPos="18.07" arrival="32589.00" arrivalPos="15.00" duration="3.00" routeLength="3.07" timeLoss="0.87" maxSpeed="1.44"/>
        <ride waitingTime="69.00" vehicle="taxi98" depart="32658.00" arrival="32788.00" arrivalPos="53.58" duration="130.00" routeLength="1640.39" timeLoss="22.63"/>
        <walk depart="32788.00" departPos="53.58" arrival="32834.00" arrivalPos="70.72" duration="46.00" routeLength="61.37" timeLoss="3.47" maxSpeed="1.44"/>
    </personinfo>
    <personinfo id="th136" depart="32421.41" type="DEFAULT_PEDTYPE">
        <walk depart="32422.00" departPos="1.60" arrival="32608.00" arrivalPos="37.39" duration="186.00" routeLength="264.64" timeLoss="15.66" maxSpeed="1.55"/>
        <ride waitingTime="32.00" vehicle="taxi38" depart="32640.00" arrival="32834.00" arrivalPos="25.00" duration="194.00" routeLength="2304.50" timeLoss="40.45"/>
        <walk depart="32834.00" departPos="25.00" arrival="32846.00" arrivalPos="9.21" duration="12.00" routeLength="15.79" timeLoss="1.84" maxSpeed="1.55"/>
    </personinfo>
    <personinfo id="tp136" depart="32421.41" type="DEFAULT_PEDTYPE">
        <walk depart="32422.00" departPos="0.77" arrival="32609.00" arrivalPos="37.39" duration="187.00" routeLength="265.47" timeLoss="25.43" maxSpeed="1.64"/>
        <ride waitingTime="60.00" vehicle="taxi38" depart="32669.00" arrival="32834.00" arrivalPos="25.00" duration="165.00" routeLength="2129.99" timeLoss="25.54"/>
        <walk depart="32834.00" departPos="25.00" arrival="32846.00" arrivalPos="9.21" duration="12.00" routeLength="15.79" timeLoss="2.39" maxSpeed="1.64"/>
    </personinfo>
    <tripinfo id="taxi107" depart="20567.00" departLane="256959704#2_0" departPos="5.10" departSpeed="0.00" departDelay="47.00" arrival="32870.00" arrivalLane="315159496#1_0" arrivalPos="57.04" arrivalSpeed="12.51" duration="12303.00" routeLength="33338.25" waitingTime="34.00" waitingCount="10" stopTime="10170.00" timeLoss="314.89" rerouteNo="10" devices="tripinfo_taxi107 routing_taxi107 taxi_taxi107 person_taxi107" vType="taxi" speedFactor="1.02" vaporized="">
        <taxi customers="6" occupiedDistance="28957.56" occupiedTime="1792.00"/>
    </tripinfo>
    <personinfo id="th63" depart="30915.84" type="DEFAULT_PEDTYPE">
        <walk depart="30916.00" departPos="3.70" arrival="31335.00" arrivalPos="87.83" duration="419.00" routeLength="510.48" timeLoss="30.57" maxSpeed="1.31"/>
        <ride waitingTime="143.00" vehicle="taxi107" depart="31478.00" arrival="32805.00" arrivalPos="15.00" duration="1327.00" routeLength="20272.54" timeLoss="155.92"/>
        <walk depart="32805.00" departPos="15.00" arrival="32903.00" arrivalPos="7.10" duration="98.00" routeLength="119.44" timeLoss="7.12" maxSpeed="1.31"/>
    </personinfo>
    <personinfo id="tp63" depart="30915.84" type="DEFAULT_PEDTYPE">
        <walk depart="30916.00" departPos="61.31" arrival="31356.00" arrivalPos="87.83" duration="440.00" routeLength="568.09" timeLoss="64.18" maxSpeed="1.51"/>
        <ride waitingTime="167.00" vehicle="taxi107" depart="31523.00" arrival="32805.00" arrivalPos="15.00" duration="1282.00" routeLength="19987.80" timeLoss="143.27"/>
        <walk depart="32805.00" departPos="15.00" arrival="32905.00" arrivalPos="7.10" duration="100.00" routeLength="119.44" timeLoss="20.99" maxSpeed="1.51"/>
    </personinfo>
    <personinfo id="d153" depart="32072.04" type="DEFAULT_PEDTYPE">
        <walk depart="32073.00" departPos="27.56" arrival="32084.00" arrivalPos="15.00" duration="11.00" routeLength="12.56" timeLoss="1.72" maxSpeed="1.35"/>
        <ride waitingTime="75.00" vehicle="taxi54" depart="32159.00" arrival="32561.00" arrivalPos="73.53" duration="402.00" routeLength="4183.64" timeLoss="63.83"/>