<?xml version="1.0" encoding="UTF-8"?>

<!-- generated by Eclipse SUMO sumo Version 1.12.0
<configuration xmlns:xsi="http://www.w3.org/2001/XMLSchema-instance" xsi:noNamespaceSchemaLocation="http://sumo.dlr.de/xsd/sumoConfiguration.xsd">

    <input>
        <net-file value="D:\Dokumente\sumo\maloja\simple.net.xml"/>
        <route-files value="D:\Dokumente\sumo\maloja\09_daytrips\persontrips_maloja_daytrips_resolved_offseason_taxi.rou.xml,D:\Dokumente\sumo\maloja\11_hotel\persontrips_maloja_hotel_resolved_offseason_taxi.rou.xml,D:\Dokumente\sumo\maloja\12_non_hotel\persontrips_maloja_non_hotel_resolved_offseason_taxi.rou.xml,D:\Dokumente\sumo\maloja\13_private\persontrips_maloja_private_resolved_offseason_taxi.rou.xml"/>
        <additional-files value="D:\Dokumente\sumo\maloja\03_bus\virtualstop.add.xml,D:\Dokumente\sumo\maloja\03_bus\03_November\gtfs_pt_stops.add.xml,D:\Dokumente\sumo\maloja\15_drt_fleet\drt_fleet.xml,D:\Dokumente\sumo\maloja\15_drt_fleet\drt_parking.add.xml,D:\Dokumente\sumo\maloja\15_drt_fleet\drt_parking_rerouter.add.xml"/>
    </input>

    <output>
        <tripinfo-output value="tripinfos_drt.xml"/>
        <tripinfo-output.write-unfinished value="true"/>
        <stop-output value="stopinfos_drt.xml"/>
        <statistic-output value="stats_drt.xml"/>
    </output>

    <time>
        <begin value="20520"/>
        <end value="77400"/>
    </time>

    <routing>
        <routing-algorithm value="CH"/>
        <persontrip.transfer.taxi-walk value="ptStops"/>
        <persontrip.transfer.walk-taxi value="ptStops"/>
    </routing>

    <report>
        <verbose value="true"/>
        <log value="simulation.log.txt"/>
        <error-log value="sumo_error.log"/>
        <duration-log.statistics value="true"/>
    </report>

    <taxi_device>
        <device.taxi.dispatch-algorithm value="traci"/>
    </taxi_device>

    <traci_server>
        <remote-port value="58602"/>
    </traci_server>

</configuration>
-->

<tripinfos xmlns:xsi="http://www.w3.org/2001/XMLSchema-instance" xsi:noNamespaceSchemaLocation="http://sumo.dlr.de/xsd/tripinfo_file.xsd">
    <personinfo id="d128" depart="28979.52" type="DEFAULT_PEDTYPE">
        <walk depart="28980.00" departPos="15.62" arrival="28984.00" arrivalPos="10.00" duration="4.00" routeLength="5.62" timeLoss="0.39" maxSpeed="1.56"/>
        <ride waitingTime="35.00" vehicle="taxi9" depart="29019.00" arrival="29214.00" arrivalPos="45.55" duration="195.00" routeLength="2626.38" timeLoss="24.31"/>
        <walk depart="29214.00" departPos="45.55" arrival="29594.00" arrivalPos="105.14" duration="380.00" routeLength="553.33" timeLoss="24.44" maxSpeed="1.56"/>
    </personinfo>
    <personinfo id="d92" depart="29122.82" type="DEFAULT_PEDTYPE">
        <walk depart="29123.00" departPos="3.38" arrival="29133.00" arrivalPos="15.00" duration="10.00" routeLength="11.62" timeLoss="1.62" maxSpeed="1.39"/>
        <ride waitingTime="36.00" vehicle="taxi36" depart="29169.00" arrival="29576.00" arrivalPos="13.24" duration="407.00" routeLength="6663.45" timeLoss="43.79"/>
        <walk depart="29576.00" departPos="13.24" arrival="29616.00" arrivalPos="0.67" duration="40.00" routeLength="47.62" timeLoss="5.65" maxSpeed="1.39"/>
    </personinfo>
    <personinfo id="d89" depart="29197.95" type="DEFAULT_PEDTYPE">
        <walk depart="29198.00" departPos="25.26" arrival="29206.00" arrivalPos="15.00" duration="8.00" routeLength="10.26" timeLoss="0.79" maxSpeed="1.42"/>
        <ride waitingTime="51.00" vehicle="taxi45" depart="29257.00" arrival="29653.00" arrivalPos="524.38" duration="396.00" routeLength="7115.34" timeLoss="45.81"/>
        <walk depart="29653.00" departPos="524.38" arrival="29680.00" arrivalPos="23.98" duration="27.00" routeLength="38.11" timeLoss="0.22" maxSpeed="1.42"/>
    </personinfo>
    <personinfo id="th83" depart="29197.95" type="DEFAULT_PEDTYPE">
        <walk depart="29198.00" departPos="101.56" arrival="29295.00" arrivalPos="23.94" duration="97.00" routeLength="162.89" timeLoss="-5.18" maxSpeed="1.59"/>
        <ride waitingTime="80.00" vehicle="taxi29" depart="29375.00" arrival="29858.00" arrivalPos="15.00" duration="483.00" routeLength="8602.48" timeLoss="53.23"/>
        <walk depart="29858.00" departPos="15.00" arrival="29870.00" arrivalPos="1.99" duration="12.00" routeLength="20.20" timeLoss="-0.67" maxSpeed="1.59"/>
    </personinfo>
    <personinfo id="tp83" depart="29197.95" type="DEFAULT_PEDTYPE">
        <walk depart="29198.00" departPos="120.67" arrival="29291.00" arrivalPos="23.94" duration="93.00" routeLength="143.77" timeLoss="-8.29" maxSpeed="1.42"/>
        <ride waitingTime="84.00" vehicle="taxi29" depart="29375.00" arrival="29858.00" arrivalPos="15.00" duration="483.00" routeLength="8602.48" timeLoss="53.23"/>
        <walk depart="29858.00" departPos="15.00" arrival="29872.00" arrivalPos="1.99" duration="14.00" routeLength="20.20" timeLoss="-0.23" maxSpeed="1.42"/>
    </personinfo>
    <personinfo id="th122" depart="28979.52" type="DEFAULT_PEDTYPE">
        <walk depart="28980.00" departPos="29.65" arrival="28991.00" arrivalPos="18.71" duration="11.00" routeLength="10.94" timeLoss="2.42" maxSpeed="1.28"/>
        <ride waitingTime="84.00" vehicle="taxi10" depart="29075.00" arrival="29443.00" arrivalPos="45.55" duration="368.00" routeLength="3978.00" timeLoss="39.17"/>
        <walk depart="29443.00" departPos="45.55" arrival="29907.00" arrivalPos="105.14" duration="464.00" routeLength="553.33" timeLoss="30.05" maxSpeed="1.28"/>
    </personinfo>
    <personinfo id="tp122" depart="28979.52" type="DEFAULT_PEDTYPE">
        <walk depart="28980.00" departPos="29.18" arrival="28990.00" arrivalPos="18.71" duration="10.00" routeLength="10.47" timeLoss="1.10" maxSpeed="1.18"/>
        <ride waitingTime="54.00" vehicle="taxi10" depart="29044.00" arrival="29443.00" arrivalPos="45.55" duration="399.00" routeLength="4090.06" timeLoss="49.25"/>
        <walk depart="29443.00" departPos="45.55" arrival="29948.00" arrivalPos="105.14" duration="505.00" routeLength="553.33" timeLoss="34.55" maxSpeed="1.18"/>
    </personinfo>
    <personinfo id="tn81" depart="29197.95" type="DEFAULT_PEDTYPE">
        <walk depart="29198.00" departPos="14.05" arrival="29379.00" arrivalPos="23.94" duration="181.00" routeLength="250.40" timeLoss="1.02" maxSpeed="1.39"/>
        <ride waitingTime="349.00" vehicle="taxi10" depart="29728.00" arrival="29859.00" arrivalPos="25.00" duration="131.00" routeLength="1699.73" timeLoss="22.07"/>
        <walk depart="29859.00" departPos="25.00" arrival="29974.00" arrivalPos="0.24" duration="115.00" routeLength="143.26" timeLoss="12.03" maxSpeed="1.39"/>
    </personinfo>
    <personinfo id="tn85" depart="28889.60" type="DEFAULT_PEDTYPE">
        <walk depart="28890.00" departPos="26.86" arrival="29302.00" arrivalPos="553.86" duration="412.00" routeLength="551.68" timeLoss="44.34" maxSpeed="1.50"/>
        <ride waitingTime="530.00" vehicle="taxi36" depart="29832.00" arrival="30059.00" arrivalPos="25.00" duration="227.00" routeLength="3011.61" timeLoss="32.51"/>
        <walk depart="30059.00" departPos="25.00" arrival="30060.00" arrivalPos="25.50" duration="1.00" routeLength="0.50" timeLoss="0.67" maxSpeed="1.50"/>
    </personinfo>
    <personinfo id="d56" depart="28921.78" type="DEFAULT_PEDTYPE">
        <walk depart="28922.00" departPos="6.52" arrival="28930.00" arrivalPos="15.00" duration="8.00" routeLength="8.48" timeLoss="1.35" maxSpeed="1.28"/>
        <ride waitingTime="61.00" vehicle="taxi9" depart="28991.00" arrival="29719.00" arrivalPos="15.00" duration="728.00" routeLength="10673.22" timeLoss="88.13"/>
        <walk depart="29719.00" departPos="15.00" arrival="30061.00" arrivalPos="62.06" duration="342.00" routeLength="452.97" timeLoss="-13.05" maxSpeed="1.28"/>
    </personinfo>
    <personinfo id="d145" depart="30205.95" type="DEFAULT_PEDTYPE">
        <walk depart="30206.00" departPos="20.48" arrival="30210.00" arrivalPos="15.00" duration="4.00" routeLength="5.48" timeLoss="0.32" maxSpeed="1.49"/>
        <ride waitingTime="59.00" vehicle="taxi64" depart="30269.00" arrival="30409.00" arrivalPos="53.58" duration="140.00" routeLength="1640.39" timeLoss="22.00"/>
        <walk depart="30409.00" departPos="53.58" arrival="30491.00" arrivalPos="18.64" duration="82.00" routeLength="43.59" timeLoss="52.71" maxSpeed="1.49"/>
    </personinfo>
    <personinfo id="th32" depart="28958.69" type="DEFAULT_PEDTYPE">
        <walk depart="28959.00" departPos="53.62" arrival="28991.00" arrivalPos="15.53" duration="32.00" routeLength="38.09" timeLoss="4.16" maxSpeed="1.37"/>
        <ride waitingTime="320.00" vehicle="taxi20" depart="29311.00" arrival="30564.00" arrivalPos="6.18" duration="1253.00" routeLength="24310.70" timeLoss="73.19"/>
        <walk depart="30564.00" departPos="6.18" arrival="30584.00" arrivalPos="24.95" duration="20.00" routeLength="41.80" timeLoss="-10.56" maxSpeed="1.37"/>
    </personinfo>
    <personinfo id="tp32" depart="28958.69" type="DEFAULT_PEDTYPE">
        <walk depart="28959.00" departPos="49.98" arrival="28988.00" arrivalPos="15.53" duration="29.00" routeLength="34.45" timeLoss="3.74" maxSpeed="1.36"/>
        <ride waitingTime="253.00" vehicle="taxi20" depart="29241.00" arrival="30564.00" arrivalPos="6.18" duration="1323.00" routeLength="24785.37" timeLoss="85.70"/>
        <walk depart="30564.00" departPos="6.18" arrival="30585.00" arrivalPos="24.95" duration="21.00" routeLength="41.80" timeLoss="-9.65" maxSpeed="1.36"/>
    </personinfo>
    <personinfo id="tn32" depart="28958.69" type="DEFAULT_PEDTYPE">
        <walk depart="28959.00" departPos="12.01" arrival="28962.00" arrivalPos="15.53" duration="3.00" routeLength="3.52" timeLoss="0.52" maxSpeed="1.42"/>
        <ride waitingTime="279.00" vehicle="taxi20" depart="29241.00" arrival="30564.00" arrivalPos="6.18" duration="1323.00" routeLength="24785.37" timeLoss="85.70"/>
        <walk depart="30564.00" departPos="6.18" arrival="30588.00" arrivalPos="19.95" duration="24.00" routeLength="46.80" timeLoss="-8.97" maxSpeed="1.42"/>
    </personinfo>
    <personinfo id="d66" depart="30056.12" type="DEFAULT_PEDTYPE">
        <walk depart="30057.00" departPos="11.38" arrival="30060.00" arrivalPos="15.00" duration="3.00" routeLength="3.62" timeLoss="0.33" maxSpeed="1.36"/>
        <ride waitingTime="42.00" vehicle="taxi18" depart="30102.00" arrival="30761.00" arrivalPos="34.99" duration="659.00" routeLength="11147.55" timeLoss="84.80"/>
        <walk depart="30761.00" departPos="34.99" arrival="30802.00" arrivalPos="14.16" duration="41.00" routeLength="52.37" timeLoss="2.43" maxSpeed="1.36"/>
    </personinfo>
    <personinfo id="d115" depart="30649.67" type="DEFAULT_PEDTYPE">
        <walk depart="30650.00" departPos="3.59" arrival="30661.00" arrivalPos="15.00" duration="11.00" routeLength="11.41" timeLoss="1.20" maxSpeed="1.16"/>
        <ride waitingTime="37.00" vehicle="taxi63" depart="30698.00" arrival="30823.00" arrivalPos="17.26" duration="125.00" routeLength="1533.40" timeLoss="22.46"/>
        <walk depart="30823.00" departPos="17.26" arrival="30886.00" arrivalPos="27.61" duration="63.00" routeLength="78.11" timeLoss="-4.10" maxSpeed="1.16"/>
    </personinfo>
    <personinfo id="th138" depart="30205.95" type="DEFAULT_PEDTYPE">
        <walk depart="30206.00" departPos="1.41" arrival="30212.00" arrivalPos="5.29" duration="6.00" routeLength="26.62" timeLoss="-14.06" maxSpeed="1.33"/>
        <ride waitingTime="409.00" vehicle="taxi8" depart="30621.00" arrival="30918.00" arrivalPos="20.00" duration="297.00" routeLength="4247.79" timeLoss="51.98"/>
        <walk depart="30918.00" departPos="20.00" arrival="30919.00" arrivalPos="20.38" duration="1.00" routeLength="0.38" timeLoss="0.71" maxSpeed="1.33"/>
    </personinfo>
    <personinfo id="tp138" depart="30205.95" type="DEFAULT_PEDTYPE">
        <walk depart="30206.00" departPos="2.27" arrival="30213.00" arrivalPos="5.29" duration="7.00" routeLength="27.48" timeLoss="-13.84" maxSpeed="1.32"/>
        <ride waitingTime="422.00" vehicle="taxi8" depart="30635.00" arrival="30918.00" arrivalPos="20.00" duration="283.00" routeLength="4213.88" timeLoss="44.15"/>
        <walk depart="30918.00" departPos="20.00" arrival="30919.00" arrivalPos="20.38" duration="1.00" routeLength="0.38" timeLoss="0.71" maxSpeed="1.32"/>
    </personinfo>
    <personinfo id="tp129" depart="29903.27" type="DEFAULT_PEDTYPE">
        <walk depart="29904.00" departPos="37.97" arrival="30333.00" arrivalPos="184.55" duration="429.00" routeLength="474.41" timeLoss="110.86" maxSpeed="1.49"/>
        <ride waitingTime="386.00" vehicle="taxi17" depart="30719.00" arrival="30907.00" arrivalPos="25.00" duration="188.00" routeLength="2643.35" timeLoss="27.09"/>
        <walk depart="30907.00" departPos="25.00" arrival="30925.00" arrivalPos="1.24" duration="18.00" routeLength="23.76" timeLoss="2.07" maxSpeed="1.49"/>
    </personinfo>
    <personinfo id="d136" depart="29903.27" type="DEFAULT_PEDTYPE">
        <walk depart="29904.00" departPos="4.37" arrival="29914.00" arrivalPos="15.00" duration="10.00" routeLength="10.63" timeLoss="1.03" maxSpeed="1.18"/>
        <ride waitingTime="328.00" vehicle="taxi64" depart="30242.00" arrival="30677.00" arrivalPos="25.48" duration="435.00" routeLength="3627.13" timeLoss="58.69"/>
        <walk depart="30677.00" departPos="25.48" arrival="30948.00" arrivalPos="1.56" duration="271.00" routeLength="307.54" timeLoss="11.42" maxSpeed="1.18"/>
    </personinfo>
    <personinfo id="th129" depart="29903.27" type="DEFAULT_PEDTYPE">
        <walk depart="29904.00" departPos="30.12" arrival="30332.00" arrivalPos="184.55" duration="428.00" routeLength="466.56" timeLoss="44.01" maxSpeed="1.22"/>
        <ride waitingTime="401.00" vehicle="taxi8" depart="30733.00" arrival="31004.00" arrivalPos="25.00" duration="271.00" routeLength="2745.09" timeLoss="39.89"/>
        <walk depart="31004.00" departPos="25.00" arrival="31026.00" arrivalPos="1.24" duration="22.00" routeLength="23.76" timeLoss="2.45" maxSpeed="1.22"/>
    </personinfo>
    <personinfo id="tp26" depart="29784.39" type="DEFAULT_PEDTYPE">
        <walk depart="29785.00" departPos="134.49" arrival="30089.00" arrivalPos="2.55" duration="304.00" routeLength="418.73" timeLoss="25.95" maxSpeed="1.51"/>
        <ride waitingTime="39.00" vehicle="taxi17" depart="30128.00" arrival="30416.00" arrivalPos="18.17" duration="288.00" routeLength="4471.13" timeLoss="37.38"/>
        <walk depart="30416.00" departPos="18.17" arrival="31073.00" arrivalPos="36.60" duration="657.00" routeLength="938.96" timeLoss="33.51" maxSpeed="1.51"/>
    </personinfo>
    <personinfo id="tn26" depart="29784.39" type="DEFAULT_PEDTYPE">
        <walk depart="29785.00" departPos="144.50" arrival="30112.00" arrivalPos="2.55" duration="327.00" routeLength="428.74" timeLoss="28.69" maxSpeed="1.44"/>
        <ride waitingTime="45.00" vehicle="taxi71" depart="30157.00" arrival="30440.00" arrivalPos="18.17" duration="283.00" routeLength="4471.21" timeLoss="37.36"/>
        <walk depart="30440.00" departPos="18.17" arrival="31127.00" arrivalPos="36.60" duration="687.00" routeLength="938.96" timeLoss="33.69" maxSpeed="1.44"/>
    </personinfo>
    <personinfo id="th26" depart="29784.39" type="DEFAULT_PEDTYPE">
        <walk depart="29785.00" departPos="147.82" arrival="30133.00" arrivalPos="2.55" duration="348.00" routeLength="432.07" timeLoss="27.61" maxSpeed="1.35"/>
        <ride waitingTime="55.00" vehicle="taxi62" depart="30188.00" arrival="30466.00" arrivalPos="18.17" duration="278.00" routeLength="4471.14" timeLoss="37.74"/>
        <walk depart="30466.00" departPos="18.17" arrival="31197.00" arrivalPos="36.60" duration="731.00" routeLength="938.96" timeLoss="34.73" maxSpeed="1.35"/>
    </personinfo>
    <personinfo id="tn68" depart="30891.43" type="DEFAULT_PEDTYPE">
        <walk depart="30892.00" departPos="0.16" arrival="30899.00" arrivalPos="6.12" duration="7.00" routeLength="8.95" timeLoss="0.93" maxSpeed="1.47"/>
        <ride waitingTime="152.00" vehicle="taxi47" depart="31051.00" arrival="31209.00" arrivalPos="109.72" duration="158.00" routeLength="2595.24" timeLoss="28.97"/>
        <walk depart="31209.00" departPos="109.72" arrival="31253.00" arrivalPos="0.15" duration="44.00" routeLength="56.08" timeLoss="5.96" maxSpeed="1.47"/>
    </personinfo>
    <personinfo id="tn48" depart="30772.95" type="DEFAULT_PEDTYPE">
        <walk depart="30773.00" departPos="5.28" arrival="30823.00" arrivalPos="10.67" duration="50.00" routeLength="60.36" timeLoss="7.66" maxSpeed="1.43"/>
        <ride waitingTime="58.00" vehicle="taxi62" depart="30881.00" arrival="31282.00" arrivalPos="20.00" duration="401.00" routeLength="6731.42" timeLoss="44.11"/>
        <walk depart="31282.00" departPos="20.00" arrival="31297.00" arrivalPos="1.20" duration="15.00" routeLength="18.80" timeLoss="1.81" maxSpeed="1.43"/>
    </personinfo>
    <personinfo id="th109" depart="30649.67" type="DEFAULT_PEDTYPE">
        <walk depart="30650.00" departPos="2.19" arrival="30868.00" arrivalPos="5.29" duration="218.00" routeLength="344.48" timeLoss="-3.64" maxSpeed="1.55"/>
        <ride waitingTime="136.00" vehicle="taxi65" depart="31004.00" arrival="31272.00" arrivalPos="15.00" duration="268.00" routeLength="3807.73" timeLoss="44.34"/>
        <walk depart="31272.00" departPos="15.00" arrival="31316.00" arrivalPos="14.92" duration="44.00" routeLength="63.55" timeLoss="3.11" maxSpeed="1.55"/>
    </personinfo>
    <personinfo id="tp109" depart="30649.67" type="DEFAULT_PEDTYPE">
        <walk depart="30650.00" departPos="3.50" arrival="30860.00" arrivalPos="5.29" duration="210.00" routeLength="343.17" timeLoss="-1.63" maxSpeed="1.62"/>
        <ride waitingTime="144.00" vehicle="taxi65" depart="31004.00" arrival="31272.00" arrivalPos="15.00" duration="268.00" routeLength="3807.73" timeLoss="44.34"/>
        <walk depart="31272.00" departPos="15.00" arrival="31316.00" arrivalPos="14.92" duration="44.00" routeLength="63.55" timeLoss="4.81" maxSpeed="1.62"/>
    </personinfo>
    <personinfo id="d57" depart="30960.73" type="DEFAULT_PEDTYPE">
        <walk depart="30961.00" departPos="2.65" arrival="30971.00" arrivalPos="15.00" duration="10.00" routeLength="12.35" timeLoss="1.49" maxSpeed="1.45"/>
        <ride waitingTime="122.00" vehicle="taxi8" depart="31093.00" arrival="31700.00" arrivalPos="15.00" duration="607.00" routeLength="10570.68" timeLoss="64.52"/>
        <walk depart="31700.00" departPos="15.00" arrival="31705.00" arrivalPos="21.47" duration="5.00" routeLength="6.47" timeLoss="0.54" maxSpeed="1.45"/>
    </personinfo>
    <personinfo id="tn64" depart="29217.29" type="DEFAULT_PEDTYPE">
        <walk depart="29218.00" departPos="2.70" arrival="29841.00" arrivalPos="18.71" duration="623.00" routeLength="709.11" timeLoss="22.79" maxSpeed="1.18"/>
        <ride waitingTime="642.00" vehicle="taxi36" depart="30483.00" arrival="31330.00" arrivalPos="5.00" duration="847.00" routeLength="12631.84" timeLoss="92.88"/>
        <walk depart="31330.00" departPos="5.00" arrival="31962.00" arrivalPos="108.49" duration="632.00" routeLength="703.52" timeLoss="36.51" maxSpeed="1.18"/>
    </personinfo>
    <personinfo id="th153" depart="30962.87" type="DEFAULT_PEDTYPE">
        <walk depart="30963.00" departPos="70.91" arrival="31486.00" arrivalPos="184.55" duration="523.00" routeLength="712.66" timeLoss="38.56" maxSpeed="1.47"/>
        <ride waitingTime="229.00" vehicle="taxi56" depart="31715.00" arrival="31960.00" arrivalPos="25.00" duration="245.00" routeLength="3217.66" timeLoss="49.68"/>
        <walk depart="31960.00" departPos="25.00" arrival="31979.00" arrivalPos="0.17" duration="19.00" routeLength="24.83" timeLoss="2.12" maxSpeed="1.47"/>
    </personinfo>
    <personinfo id="tp153" depart="30962.87" type="DEFAULT_PEDTYPE">
        <walk depart="30963.00" departPos="116.99" arrival="31494.00" arrivalPos="184.55" duration="531.00" routeLength="758.73" timeLoss="36.17" maxSpeed="1.53"/>
        <ride waitingTime="272.00" vehicle="taxi56" depart="31766.00" arrival="31960.00" arrivalPos="25.00" duration="194.00" routeLength="2643.35" timeLoss="28.94"/>
        <walk depart="31960.00" departPos="25.00" arrival="31980.00" arrivalPos="0.17" duration="20.00" routeLength="24.83" timeLoss="3.81" maxSpeed="1.53"/>
    </personinfo>
    <personinfo id="d141" depart="31854.41" type="DEFAULT_PEDTYPE">
        <walk depart="31855.00" departPos="22.29" arrival="31864.00" arrivalPos="10.00" duration="9.00" routeLength="12.29" timeLoss="1.10" maxSpeed="1.56"/>
        <ride waitingTime="33.00" vehicle="taxi0" depart="31897.00" arrival="32046.00" arrivalPos="33.59" duration="149.00" routeLength="1872.25" timeLoss="26.19"/>
        <walk depart="32046.00" departPos="33.59" arrival="32098.00" arrivalPos="36.77" duration="52.00" routeLength="76.07" timeLoss="3.12" maxSpeed="1.56"/>
    </personinfo>
    <personinfo id="tp65" depart="29217.29" type="DEFAULT_PEDTYPE">
        <walk depart="29218.00" departPos="2.03" arrival="29713.00" arrivalPos="18.71" duration="495.00" routeLength="709.78" timeLoss="17.99" maxSpeed="1.49"/>
        <ride waitingTime="550.00" vehicle="taxi10" depart="30263.00" arrival="31412.00" arrivalPos="98.33" duration="1149.00" routeLength="19750.65" timeLoss="91.90"/>
        <walk depart="31412.00" departPos="98.33" arrival="32102.00" arrivalPos="16.12" duration="690.00" routeLength="934.66" timeLoss="61.85" maxSpeed="1.49"/>
    </personinfo>
    <personinfo id="th89" depart="31346.34" type="DEFAULT_PEDTYPE">
        <walk depart="31347.00" departPos="36.58" arrival="31455.00" arrivalPos="9.76" duration="108.00" routeLength="142.26" timeLoss="3.64" maxSpeed="1.36"/>
        <ride waitingTime="88.00" vehicle="taxi63" depart="31543.00" arrival="32078.00" arrivalPos="34.99" duration="535.00" routeLength="9566.43" timeLoss="60.10"/>
        <walk depart="32078.00" departPos="34.99" arrival="32117.00" arrivalPos="12.82" duration="39.00" routeLength="51.03" timeLoss="1.57" maxSpeed="1.36"/>
    </personinfo>
    <personinfo id="th156" depart="31417.42" type="DEFAULT_PEDTYPE">
        <walk depart="31418.00" departPos="11.74" arrival="31436.00" arrivalPos="7.50" duration="18.00" routeLength="30.13" timeLoss="-6.61" maxSpeed="1.22"/>
        <ride waitingTime="531.00" vehicle="taxi71" depart="31967.00" arrival="32125.00" arrivalPos="25.00" duration="158.00" routeLength="1497.64" timeLoss="26.48"/>
        <walk depart="32125.00" departPos="25.00" arrival="32136.00" arrivalPos="13.22" duration="11.00" routeLength="11.78" timeLoss="1.38" maxSpeed="1.22"/>
    </personinfo>
    <personinfo id="tp156" depart="31417.42" type="DEFAULT_PEDTYPE">
        <walk depart="31418.00" departPos="1.68" arrival="31425.00" arrivalPos="7.50" duration="7.00" routeLength="20.07" timeLoss="-5.99" maxSpeed="1.55"/>
        <ride waitingTime="394.00" vehicle="taxi71" depart="31819.00" arrival="32125.00" arrivalPos="25.00" duration="306.00" routeLength="2916.34" timeLoss="48.38"/>
        <walk depart="32125.00" departPos="25.00" arrival="32137.00" arrivalPos="13.22" duration="12.00" routeLength="11.78" timeLoss="4.38" maxSpeed="1.55"/>
    </personinfo>
    <personinfo id="d29" depart="29784.39" type="DEFAULT_PEDTYPE">
        <walk depart="29785.00" departPos="4.06" arrival="29796.00" arrivalPos="15.00" duration="11.00" routeLength="10.94" timeLoss="1.34" maxSpeed="1.13"/>
        <ride waitingTime="414.00" vehicle="taxi64" depart="30210.00" arrival="32124.00" arrivalPos="182.42" duration="1914.00" routeLength="27681.52" timeLoss="181.65"/>
        <walk depart="32124.00" departPos="182.42" arrival="32159.00" arrivalPos="22.78" duration="35.00" routeLength="33.98" timeLoss="4.98" maxSpeed="1.13"/>
    </personinfo>
    <personinfo id="tp89" depart="31346.34" type="DEFAULT_PEDTYPE">
        <walk depart="31347.00" departPos="58.67" arrival="31449.00" arrivalPos="9.76" duration="102.00" routeLength="120.17" timeLoss="0.43" maxSpeed="1.18"/>
        <ride waitingTime="250.00" vehicle="taxi54" depart="31699.00" arrival="32230.00" arrivalPos="34.99" duration="531.00" routeLength="9565.63" timeLoss="59.31"/>
        <walk depart="32230.00" departPos="34.99" arrival="32276.00" arrivalPos="12.82" duration="46.00" routeLength="51.03" timeLoss="2.87" maxSpeed="1.18"/>
    </personinfo>
    <personinfo id="th65" depart="29217.29" type="DEFAULT_PEDTYPE">
        <walk depart="29218.00" departPos="0.09" arrival="29786.00" arrivalPos="18.71" duration="568.00" routeLength="711.72" timeLoss="79.61" maxSpeed="1.46"/>
        <ride waitingTime="41.00" vehicle="taxi64" depart="29827.00" arrival="31622.00" arrivalPos="98.33" duration="1795.00" routeLength="22491.29" timeLoss="195.48"/>
        <walk depart="31622.00" departPos="98.33" arrival="32326.00" arrivalPos="16.12" duration="704.00" routeLength="934.66" timeLoss="62.62" maxSpeed="1.46"/>
    </personinfo>
    <personinfo id="d35" depart="31079.74" type="DEFAULT_PEDTYPE">
        <walk depart="31080.00" departPos="1.45" arrival="31091.00" arrivalPos="15.00" duration="11.00" routeLength="13.55" timeLoss="1.51" maxSpeed="1.43"/>
        <ride waitingTime="267.00" vehicle="taxi62" depart="31358.00" arrival="32257.00" arrivalPos="15.00" duration="899.00" routeLength="16798.40" timeLoss="85.14"/>
        <walk depart="32257.00" departPos="15.00" arrival="32389.00" arrivalPos="1.00" duration="132.00" routeLength="212.89" timeLoss="-17.09" maxSpeed="1.43"/>
    </personinfo>
    <personinfo id="th146" depart="32072.04" type="DEFAULT_PEDTYPE">
        <walk depart="32073.00" departPos="86.87" arrival="32128.00" arrivalPos="7.50" duration="55.00" routeLength="79.37" timeLoss="5.56" maxSpeed="1.61"/>
        <ride waitingTime="152.00" vehicle="taxi0" depart="32280.00" arrival="32483.00" arrivalPos="25.00" duration="203.00" routeLength="2295.31" timeLoss="26.89"/>
        <walk depart="32483.00" departPos="25.00" arrival="32492.00" arrivalPos="12.94" duration="9.00" routeLength="12.06" timeLoss="1.49" maxSpeed="1.61"/>
    </personinfo>
    <personinfo id="tp146" depart="32072.04" type="DEFAULT_PEDTYPE">
        <walk depart="32073.00" departPos="3.43" arrival="32077.00" arrivalPos="7.50" duration="4.00" routeLength="4.07" timeLoss="1.25" maxSpeed="1.48"/>
        <ride waitingTime="130.00" vehicle="taxi0" depart="32207.00" arrival="32483.00" arrivalPos="25.00" duration="276.00" routeLength="2780.83" timeLoss="41.26"/>
        <walk depart="32483.00" departPos="25.00" arrival="32493.00" arrivalPos="12.94" duration="10.00" routeLength="12.06" timeLoss="1.84" maxSpeed="1.48"/>
    </personinfo>
    <personinfo id="th63" depart="30915.84" type="DEFAULT_PEDTYPE">
        <walk depart="30916.00" departPos="12.50" arrival="31346.00" arrivalPos="87.83" duration="430.00" routeLength="519.28" timeLoss="31.91" maxSpeed="1.30"/>
        <ride waitingTime="139.00" vehicle="taxi54" depart="31485.00" arrival="32586.00" arrivalPos="15.00" duration="1101.00" routeLength="17206.82" timeLoss="121.29"/>
        <walk depart="32586.00" departPos="15.00" arrival="32687.00" arrivalPos="7.10" duration="101.00" routeLength="119.44" timeLoss="9.44" maxSpeed="1.30"/>
    </personinfo>
    <personinfo id="tp63" depart="30915.84" type="DEFAULT_PEDTYPE">
        <walk depart="30916.00" departPos="45.77" arrival="31391.00" arrivalPos="87.83" duration="475.00" routeLength="552.55" timeLoss="34.10" maxSpeed="1.25"/>
        <ride waitingTime="140.00" vehicle="taxi54" depart="31531.00" arrival="32586.00" arrivalPos="15.00" duration="1055.00" routeLength="16920.88" timeLoss="107.62"/>
        <walk depart="32586.00" departPos="15.00" arrival="32692.00" arrivalPos="7.10" duration="106.00" routeLength="119.44" timeLoss="10.70" maxSpeed="1.25"/>
    </personinfo>
    <personinfo id="d91" depart="32165.36" type="DEFAULT_PEDTYPE">
        <walk depart="32166.00" departPos="17.26" arrival="32168.00" arrivalPos="15.00" duration="2.00" routeLength="2.26" timeLoss="0.38" maxSpeed="1.39"/>
        <ride waitingTime="29.00" vehicle="taxi71" depart="32197.00" arrival="32615.00" arrivalPos="23.03" duration="418.00" routeLength="6519.18" timeLoss="48.20"/>
        <walk depart="32615.00" departPos="23.03" arrival="32723.00" arrivalPos="33.80" duration="108.00" routeLength="138.69" timeLoss="8.56" maxSpeed="1.39"/>
    </personinfo>
    <personinfo id="d153" depart="32072.04" type="DEFAULT_PEDTYPE">
        <walk depart="32073.00" departPos="24.94" arrival="32082.00" arrivalPos="15.00" duration="9.00" routeLength="9.94" timeLoss="1.13" maxSpeed="1.26"/>
        <ride waitingTime="57.00" vehicle="taxi27" depart="32139.00" arrival="32373.00" arrivalPos="73.53" duration="234.00" routeLength="3068.94" timeLoss="33.56"/>
        <walk depart="32373.00" departPos="73.53" arrival="32765.00" arrivalPos="62.03" duration="392.00" routeLength="460.44" timeLoss="27.26" maxSpeed="1.26"/>
    </personinfo>
    <personinfo id="d42" depart="32180.65" type="DEFAULT_PEDTYPE">
        <walk depart="32181.00" departPos="18.30" arrival="32183.00" arrivalPos="15.00" duration="2.00" routeLength="3.30" timeLoss="0.10" maxSpeed="1.74"/>
        <ride waitingTime="49.00" vehicle="taxi56" depart="32232.00" arrival="32860.00" arrivalPos="25.93" duration="628.00" routeLength="10630.75" timeLoss="69.54"/>
        <walk depart="32860.00" departPos="25.93" arrival="32872.00" arrivalPos="7.56" duration="12.00" routeLength="18.37" timeLoss="1.45" maxSpeed="1.74"/>
    </personinfo>
    <personinfo id="d93" depart="32235.74" type="DEFAULT_PEDTYPE">
        <walk depart="32236.00" departPos="10.92" arrival="32239.00" arrivalPos="15.00" duration="3.00" routeLength="4.08" timeLoss="0.46" maxSpeed="1.61"/>
        <ride waitingTime="50.00" vehicle="taxi17" depart="32289.00" arrival="32857.00" arrivalPos="33.91" duration="568.00" routeLength="8205.85" timeLoss="57.85"/>