<?xml version="1.0" encoding="UTF-8"?>

<!-- generated by Eclipse SUMO gtfs2fcd.py v1_26_0+0000-fa7df22d7f1
<configuration>
    <gtfs value="D:\Dokumente\sumo\maloja\03_bus\02_August\GTFS_FP2024_2024-08-22.zip"/>
    <date value="20240822"/>
    <modes value="bus"/>
    <network value="D:\Dokumente\sumo\maloja\osm_modded.net.xml"/>
    <stops value="D:\Dokumente\sumo\maloja\03_bus\osm_stops.add.xml"/>
    <repair value="True"/>
</configuration>
-->

<fcd-export>
    <timestep time="63000"><vehicle id="1323.TA.92-1-N-j24-1.88.H" x="9.87303294617119" y="46.5337591786226" until="0" name="Samedan, Bahnhof" fareZone="" fareSymbol="" startFare="" speed="20"/></timestep>
    <timestep time="63060"><vehicle id="1323.TA.92-1-N-j24-1.88.H" x="9.87203581620568" y="46.5352670176455" until="120" name="Samedan, Post" fareZone="" fareSymbol="" startFare="" speed="20"/></timestep>
    <timestep time="63060"><vehicle id="1323.TA.92-1-N-j24-1.88.H" x="9.87104766939301" y="46.534568720352" until="120" name="Samedan, Chesa Planta" fareZone="" fareSymbol="" startFare="" speed="20"/></timestep>
    <timestep time="63120"><vehicle id="1323.TA.92-1-N-j24-1.88.H" x="9.86937680296431" y="46.5330361426011" until="180" name="Samedan, Central" fareZone="" fareSymbol="" startFare="" speed="20"/></timestep>
    <timestep time="63180"><vehicle id="1323.TA.92-1-N-j24-1.88.H" x="9.87146089442376" y="46.5305826922166" until="240" name="Samedan, Golf" fareZone="" fareSymbol="" startFare="" speed="20"/></timestep>
    <timestep time="63240"><vehicle id="1323.TA.92-1-N-j24-1.88.H" x="9.87342820489626" y="46.5313181209662" until="300" name="Samedan, Porta Samedan" fareZone="" fareSymbol="" startFare="" speed="20"/></timestep>
    <timestep time="63540"><vehicle id="1323.TA.92-1-N-j24-1.88.H" x="9.88268085232398" y="46.5084781033611" until="600" name="Punt Muragl, Talstation" fareZone="" fareSymbol="" startFare="" speed="20"/></timestep>
    <timestep time="63600"><vehicle id="1323.TA.92-1-N-j24-1.88.H" x="9.89267910143762" y="46.5016025839003" until="660" name="Pontresina, Godin" fareZone="" fareSymbol="" startFare="" speed="20"/></timestep>
    <timestep time="63660"><vehicle id="1323.TA.92-1-N-j24-1.88.H" x="9.89807797629593" y="46.4984365847279" until="720" name="Pontresina, Sportpavillon" fareZone="" fareSymbol="" startFare="" speed="20"/></timestep>
    <timestep time="63720"><vehicle id="1323.TA.92-1-N-j24-1.88.H" x="9.89980274164168" y="46.4955239500329" until="780" name="Pontresina, Schlossgarage" fareZone="" fareSymbol="" startFare="" speed="20"/></timestep>
    <timestep time="63840"><vehicle id="1323.TA.92-1-N-j24-1.88.H" x="9.90300074405359" y="46.4924812860447" until="900" name="Pontresina, Rondo" fareZone="" fareSymbol="" startFare="" speed="20"/></timestep>
    <timestep time="63960"><vehicle id="1323.TA.92-1-N-j24-1.88.H" x="9.90671078617752" y="46.4879850054838" until="1020" name="Pontresina, Post" fareZone="" fareSymbol="" startFare="" speed="20"/></timestep>
    <timestep time="64380"><vehicle id="1323.TA.92-1-N-j24-1.88.H" x="9.89608371636491" y="46.4910341056312" until="1440" name="Pontresina, Bahnhof" fareZone="" fareSymbol="" startFare="" speed="20"/></timestep>
    <timestep time="64620"><vehicle id="1323.TA.92-1-N-j24-1.88.H" x="9.88268085232398" y="46.5084781033611" until="1680" name="Punt Muragl, Talstation" fareZone="" fareSymbol="" startFare="" speed="20"/></timestep>
    <timestep time="65040"><vehicle id="1323.TA.92-1-N-j24-1.88.H" x="9.84528398704088" y="46.4976759754318" until="2100" name="St. Moritz, Bahnhof" fareZone="" fareSymbol="" startFare="" speed="20"/></timestep>
    <timestep time="65100"><vehicle id="1323.TA.92-1-N-j24-1.88.H" x="9.83937307247055" y="46.4971874484028" until="2160" name="St. Moritz, Klinik Gut" fareZone="" fareSymbol="" startFare="" speed="20"/></timestep>
    <timestep time="65220"><vehicle id="1323.TA.92-1-N-j24-1.88.H" x="9.83862747078462" y="46.4982510712465" until="2340" name="St. Moritz, Schulhausplatz" fareZone="" fareSymbol="" startFare="" speed="20"/></timestep>
    <timestep time="65220"><vehicle id="1323.TA.92-1-N-j24-1.88.H" x="9.83687575598035" y="46.496167092983" until="2340" name="St. Moritz, Caspar Badrutt" fareZone="" fareSymbol="" startFare="" speed="20"/></timestep>
    <timestep time="65280"><vehicle id="1323.TA.92-1-N-j24-1.88.H" x="9.83483658028511" y="46.49159690259" until="2400" name="St. Moritz Bad, Via Aruons" fareZone="" fareSymbol="" startFare="" speed="20"/></timestep>
    <timestep time="65340"><vehicle id="1323.TA.92-1-N-j24-1.88.H" x="9.83526777162155" y="46.488968405341" until="2460" name="St. Moritz Bad, Via Salet" fareZone="" fareSymbol="" startFare="" speed="20"/></timestep>
    <timestep time="65400"><vehicle id="1323.TA.92-1-N-j24-1.88.H" x="9.83751355983216" y="46.4884859849912" until="2520" name="St. Moritz Bad, Kath. Kirche" fareZone="" fareSymbol="" startFare="" speed="20"/></timestep>
    <timestep time="65460"><vehicle id="1323.TA.92-1-N-j24-1.88.H" x="9.84019053937921" y="46.4866737780177" until="2580" name="St. Moritz Bad, Sonne" fareZone="" fareSymbol="" startFare="" speed="20"/></timestep>
    <timestep time="65520"><vehicle id="1323.TA.92-1-N-j24-1.88.H" x="9.83674100868771" y="46.4848676959849" until="2640" name="St. Moritz Bad, Hallenbad" fareZone="" fareSymbol="" startFare="" speed="20"/></timestep>
    <timestep time="65580"><vehicle id="1323.TA.92-1-N-j24-1.88.H" x="9.83409996175203" y="46.4838038113818" until="2760" name="St. Moritz Bad, Via San Gian" fareZone="" fareSymbol="" startFare="" speed="20"/></timestep>
    <timestep time="65580"><vehicle id="1323.TA.92-1-N-j24-1.88.H" x="9.83210570182101" y="46.4835254660462" until="2760" name="St. Moritz Bad, Signalbahn" fareZone="" fareSymbol="" startFare="" speed="20"/></timestep>
    <timestep time="65640"><vehicle id="1323.TA.92-1-N-j24-1.88.H" x="9.82370645391332" y="46.4788614234688" until="2820" name="St. Moritz Bad, Campingplatz" fareZone="" fareSymbol="" startFare="" speed="20"/></timestep>
    <timestep time="65940"><vehicle id="1323.TA.92-1-N-j24-1.88.H" x="9.79787090633845" y="46.4604920957084" until="3120" name="Silvaplana, Rundella Curtins" fareZone="" fareSymbol="" startFare="" speed="20"/></timestep>
    <timestep time="66000"><vehicle id="1323.TA.92-1-N-j24-1.88.H" x="9.80385368613152" y="46.4597928374937" until="3180" name="Surlej, Punt" fareZone="" fareSymbol="" startFare="" speed="20"/></timestep>
    <timestep time="66060"><vehicle id="1323.TA.92-1-N-j24-1.88.H" x="9.81113902308674" y="46.4589759935165" until="3240" name="Surlej, Foppas" fareZone="" fareSymbol="" startFare="" speed="20"/></timestep>
    <timestep time="109440"><vehicle id="1406.TA.92-1-N-j24-1.89.H" x="9.87303294617119" y="46.5337591786226" until="0" name="Samedan, Bahnhof" fareZone="" fareSymbol="" startFare="" speed="20"/></timestep>
    <timestep time="109500"><vehicle id="1406.TA.92-1-N-j24-1.89.H" x="9.87203581620568" y="46.5352670176455" until="120" name="Samedan, Post" fareZone="" fareSymbol="" startFare="" speed="20"/></timestep>
    <timestep time="109500"><vehicle id="1406.TA.92-1-N-j24-1.89.H" x="9.87104766939301" y="46.534568720352" until="120" name="Samedan, Chesa Planta" fareZone="" fareSymbol="" startFare="" speed="20"/></timestep>
    <timestep time="109560"><vehicle id="1406.TA.92-1-N-j24-1.89.H" x="9.86937680296431" y="46.5330361426011" until="180" name="Samedan, Central" fareZone="" fareSymbol="" startFare="" speed="20"/></timestep>
    <timestep time="109620"><vehicle id="1406.TA.92-1-N-j24-1.89.H" x="9.87146089442376" y="46.5305826922166" until="240" name="Samedan, Golf" fareZone="" fareSymbol="" startFare="" speed="20"/></timestep>
    <timestep time="109680"><vehicle id="1406.TA.92-1-N-j24-1.89.H" x="9.87342820489626" y="46.5313181209662" until="300" name="Samedan, Porta Samedan" fareZone="" fareSymbol="" startFare="" speed="20"/></timestep>
    <timestep time="109980"><vehicle id="1406.TA.92-1-N-j24-1.89.H" x="9.88268085232398" y="46.5084781033611" until="600" name="Punt Muragl, Talstation" fareZone="" fareSymbol="" startFare="" speed="20"/></timestep>
    <timestep time="110040"><vehicle id="1406.TA.92-1-N-j24-1.89.H" x="9.89267910143762" y="46.5016025839003" until="660" name="Pontresina, Godin" fareZone="" fareSymbol="" startFare="" speed="20"/></timestep>
    <timestep time="110100"><vehicle id="1406.TA.92-1-N-j24-1.89.H" x="9.89807797629593" y="46.4984365847279" until="720" name="Pontresina, Sportpavillon" fareZone="" fareSymbol="" startFare="" speed="20"/></timestep>
    <timestep time="110160"><vehicle id="1406.TA.92-1-N-j24-1.89.H" x="9.89980274164168" y="46.4955239500329" until="780" name="Pontresina, Schlossgarage" fareZone="" fareSymbol="" startFare="" speed="20"/></timestep>
    <timestep time="110280"><vehicle id="1406.TA.92-1-N-j24-1.89.H" x="9.90300074405359" y="46.4924812860447" until="900" name="Pontresina, Rondo" fareZone="" fareSymbol="" startFare="" speed="20"/></timestep>
    <timestep time="110400"><vehicle id="1406.TA.92-1-N-j24-1.89.H" x="9.90671078617752" y="46.4879850054838" until="1020" name="Pontresina, Post" fareZone="" fareSymbol="" startFare="" speed="20"/></timestep>
    <timestep time="110820"><vehicle id="1406.TA.92-1-N-j24-1.89.H" x="9.89608371636491" y="46.4910341056312" until="1440" name="Pontresina, Bahnhof" fareZone="" fareSymbol="" startFare="" speed="20"/></timestep>
    <timestep time="111060"><vehicle id="1406.TA.92-1-N-j24-1.89.H" x="9.88268085232398" y="46.5084781033611" until="1680" name="Punt Muragl, Talstation" fareZone="" fareSymbol="" startFare="" speed="20"/></timestep>
    <timestep time="111480"><vehicle id="1406.TA.92-1-N-j24-1.89.H" x="9.84528398704088" y="46.4976759754318" until="2100" name="St. Moritz, Bahnhof" fareZone="" fareSymbol="" startFare="" speed="20"/></timestep>
    <timestep time="111540"><vehicle id="1406.TA.92-1-N-j24-1.89.H" x="9.83937307247055" y="46.4971874484028" until="2160" name="St. Moritz, Klinik Gut" fareZone="" fareSymbol="" startFare="" speed="20"/></timestep>
    <timestep time="111660"><vehicle id="1406.TA.92-1-N-j24-1.89.H" x="9.83862747078462" y="46.4982510712465" until="2340" name="St. Moritz, Schulhausplatz" fareZone="" fareSymbol="" startFare="" speed="20"/></timestep>
    <timestep time="111660"><vehicle id="1406.TA.92-1-N-j24-1.89.H" x="9.83687575598035" y="46.496167092983" until="2340" name="St. Moritz, Caspar Badrutt" fareZone="" fareSymbol="" startFare="" speed="20"/></timestep>
    <timestep time="111720"><vehicle id="1406.TA.92-1-N-j24-1.89.H" x="9.83483658028511" y="46.49159690259" until="2400" name="St. Moritz Bad, Via Aruons" fareZone="" fareSymbol="" startFare="" speed="20"/></timestep>
    <timestep time="111780"><vehicle id="1406.TA.92-1-N-j24-1.89.H" x="9.83526777162155" y="46.488968405341" until="2460" name="St. Moritz Bad, Via Salet" fareZone="" fareSymbol="" startFare="" speed="20"/></timestep>
    <timestep time="111840"><vehicle id="1406.TA.92-1-N-j24-1.89.H" x="9.83751355983216" y="46.4884859849912" until="2520" name="St. Moritz Bad, Kath. Kirche" fareZone="" fareSymbol="" startFare="" speed="20"/></timestep>
    <timestep time="111900"><vehicle id="1406.TA.92-1-N-j24-1.89.H" x="9.84019053937921" y="46.4866737780177" until="2580" name="St. Moritz Bad, Sonne" fareZone="" fareSymbol="" startFare="" speed="20"/></timestep>
    <timestep time="111960"><vehicle id="1406.TA.92-1-N-j24-1.89.H" x="9.83674100868771" y="46.4848676959849" until="2640" name="St. Moritz Bad, Hallenbad" fareZone="" fareSymbol="" startFare="" speed="20"/></timestep>
    <timestep time="112020"><vehicle id="1406.TA.92-1-N-j24-1.89.H" x="9.83409996175203" y="46.4838038113818" until="2760" name="St. Moritz Bad, Via San Gian" fareZone="" fareSymbol="" startFare="" speed="20"/></timestep>
    <timestep time="112020"><vehicle id="1406.TA.92-1-N-j24-1.89.H" x="9.83210570182101" y="46.4835254660462" until="2760" name="St. Moritz Bad, Signalbahn" fareZone="" fareSymbol="" startFare="" speed="20"/></timestep>
    <timestep time="112080"><vehicle id="1406.TA.92-1-N-j24-1.89.H" x="9.82370645391332" y="46.4788614234688" until="2820" name="St. Moritz Bad, Campingplatz" fareZone="" fareSymbol="" startFare="" speed="20"/></timestep>
    <timestep time="112380"><vehicle id="1406.TA.92-1-N-j24-1.89.H" x="9.79787090633845" y="46.4604920957084" until="3120" name="Silvaplana, Rundella Curtins" fareZone="" fareSymbol="" startFare="" speed="20"/></timestep>
    <timestep time="112440"><vehicle id="1406.TA.92-1-N-j24-1.89.H" x="9.80385368613152" y="46.4597928374937" until="3180" name="Surlej, Punt" fareZone="" fareSymbol="" startFare="" speed="20"/></timestep>
    <timestep time="112500"><vehicle id="1406.TA.92-1-N-j24-1.89.H" x="9.81113902308674" y="46.4589759935165" until="3240" name="Surlej, Foppas" fareZone="" fareSymbol="" startFare="" speed="20"/></timestep>
    <timestep time="112680"><vehicle id="1406.TA.92-1-N-j24-1.89.H" x="9.81378007002242" y="46.4550401189539" until="3420" name="Surlej, Corvatschbahn" fareZone="" fareSymbol="" startFare="" speed="20"/></timestep>
    <timestep time="183960"><vehicle id="1674.TA.92-1-N-j24-1.90.R" x="9.83409996175203" y="46.4838038113818" until="0" name="St. Moritz Bad, Via San Gian" fareZone="" fareSymbol="" startFare="" speed="20"/></timestep>
    <timestep time="184020"><vehicle id="1674.TA.92-1-N-j24-1.90.R" x="9.83716321687131" y="46.484948105022" until="60" name="St. Moritz Bad, Hallenbad" fareZone="" fareSymbol="" startFare="" speed="20"/></timestep>
    <timestep time="184140"><vehicle id="1674.TA.92-1-N-j24-1.90.R" x="9.84019053937921" y="46.4866737780177" until="180" name="St. Moritz Bad, Sonne" fareZone="" fareSymbol="" startFare="" speed="20"/></timestep>
    <timestep time="184200"><vehicle id="1674.TA.92-1-N-j24-1.90.R" x="9.83751355983216" y="46.4884859849912" until="240" name="St. Moritz Bad, Kath. Kirche" fareZone="" fareSymbol="" startFare="" speed="20"/></timestep>
    <timestep time="184260"><vehicle id="1674.TA.92-1-N-j24-1.90.R" x="9.83526777162155" y="46.488968405341" until="300" name="St. Moritz Bad, Via Salet" fareZone="" fareSymbol="" startFare="" speed="20"/></timestep>
    <timestep time="184320"><vehicle id="1674.TA.92-1-N-j24-1.90.R" x="9.83483658028511" y="46.49159690259" until="360" name="St. Moritz Bad, Via Aruons" fareZone="" fareSymbol="" startFare="" speed="20"/></timestep>
    <timestep time="184500"><vehicle id="1674.TA.92-1-N-j24-1.90.R" x="9.83904069581538" y="46.4983623794113" until="540" name="St. Moritz, Schulhausplatz" fareZone="" fareSymbol="" startFare="" speed="20"/></timestep>
    <timestep time="184560"><vehicle id="1674.TA.92-1-N-j24-1.90.R" x="9.83937307247055" y="46.4971874484028" until="600" name="St. Moritz, Klinik Gut" fareZone="" fareSymbol="" startFare="" speed="20"/></timestep>
    <timestep time="184680"><vehicle id="1674.TA.92-1-N-j24-1.90.R" x="9.84528398704088" y="46.4976759754318" until="720" name="St. Moritz, Bahnhof" fareZone="" fareSymbol="" startFare="" speed="20"/></timestep>
    <timestep time="255180"><vehicle id="193.TA.92-1-N-j24-1.77.H" x="9.84528398704088" y="46.4976759754318" until="0" name="St. Moritz, Bahnhof" fareZone="" fareSymbol="" startFare="" speed="20"/></timestep>
    <timestep time="255240"><vehicle id="193.TA.92-1-N-j24-1.77.H" x="9.83937307247055" y="46.4971874484028" until="60" name="St. Moritz, Klinik Gut" fareZone="" fareSymbol="" startFare="" speed="20"/></timestep>
    <timestep time="255360"><vehicle id="193.TA.92-1-N-j24-1.77.H" x="9.83862747078462" y="46.4982510712465" until="240" name="St. Moritz, Schulhausplatz" fareZone="" fareSymbol="" startFare="" speed="20"/></timestep>
    <timestep time="255360"><vehicle id="193.TA.92-1-N-j24-1.77.H" x="9.83687575598035" y="46.496167092983" until="240" name="St. Moritz, Caspar Badrutt" fareZone="" fareSymbol="" startFare="" speed="20"/></timestep>
    <timestep time="255420"><vehicle id="193.TA.92-1-N-j24-1.77.H" x="9.83483658028511" y="46.49159690259" until="300" name="St. Moritz Bad, Via Aruons" fareZone="" fareSymbol="" startFare="" speed="20"/></timestep>
    <timestep time="255480"><vehicle id="193.TA.92-1-N-j24-1.77.H" x="9.83526777162155" y="46.488968405341" until="360" name="St. Moritz Bad, Via Salet" fareZone="" fareSymbol="" startFare="" speed="20"/></timestep>
    <timestep time="255540"><vehicle id="193.TA.92-1-N-j24-1.77.H" x="9.83751355983216" y="46.4884859849912" until="420" name="St. Moritz Bad, Kath. Kirche" fareZone="" fareSymbol="" startFare="" speed="20"/></timestep>
    <timestep time="255600"><vehicle id="193.TA.92-1-N-j24-1.77.H" x="9.84019053937921" y="46.4866737780177" until="480" name="St. Moritz Bad, Sonne" fareZone="" fareSymbol="" startFare="" speed="20"/></timestep>
    <timestep time="255660"><vehicle id="193.TA.92-1-N-j24-1.77.H" x="9.83674100868771" y="46.4848676959849" until="540" name="St. Moritz Bad, Hallenbad" fareZone="" fareSymbol="" startFare="" speed="20"/></timestep>
    <timestep time="255720"><vehicle id="193.TA.92-1-N-j24-1.77.H" x="9.83409996175203" y="46.4838038113818" until="600" name="St. Moritz Bad, Via San Gian" fareZone="" fareSymbol="" startFare="" speed="20"/></timestep>
    <timestep time="285000"><vehicle id="2186.TA.92-1-N-j24-1.14.R" x="9.90658502203773" y="46.488263328002" until="0" name="Pontresina, Post" fareZone="" fareSymbol="" startFare="" speed="20"/></timestep>
    <timestep time="285060"><vehicle id="2186.TA.92-1-N-j24-1.14.R" x="9.90283904730243" y="46.4918690221077" until="60" name="Pontresina, Punt Ota Sur" fareZone="" fareSymbol="" startFare="" speed="20"/></timestep>
    <timestep time="285180"><vehicle id="2186.TA.92-1-N-j24-1.14.R" x="9.89980274164168" y="46.4955239500329" until="180" name="Pontresina, Schlossgarage" fareZone="" fareSymbol="" startFare="" speed="20"/></timestep>
    <timestep time="285240"><vehicle id="2186.TA.92-1-N-j24-1.14.R" x="9.89807797629593" y="46.4984365847279" until="240" name="Pontresina, Sportpavillon" fareZone="" fareSymbol="" startFare="" speed="20"/></timestep>
    <timestep time="285300"><vehicle id="2186.TA.92-1-N-j24-1.14.R" x="9.89267910143762" y="46.5016025839003" until="300" name="Pontresina, Godin" fareZone="" fareSymbol="" startFare="" speed="20"/></timestep>
    <timestep time="285480"><vehicle id="2186.TA.92-1-N-j24-1.14.R" x="9.88268085232398" y="46.5084781033611" until="480" name="Punt Muragl, Talstation" fareZone="" fareSymbol="" startFare="" speed="20"/></timestep>
    <timestep time="285660"><vehicle id="2186.TA.92-1-N-j24-1.14.R" x="9.87342820489626" y="46.5313181209662" until="660" name="Samedan, Porta Samedan" fareZone="" fareSymbol="" startFare="" speed="20"/></timestep>
    <timestep time="285720"><vehicle id="2186.TA.92-1-N-j24-1.14.R" x="9.87146089442376" y="46.5305826922166" until="720" name="Samedan, Golf" fareZone="" fareSymbol="" startFare="" speed="20"/></timestep>
    <timestep time="285960"><vehicle id="2186.TA.92-1-N-j24-1.14.R" x="9.87303294617119" y="46.5337591786226" until="960" name="Samedan, Bahnhof" fareZone="" fareSymbol="" startFare="" speed="20"/></timestep>
    <timestep time="308700"><vehicle id="2429.TA.92-1-N-j24-1.91.R" x="9.83409996175203" y="46.4838038113818" until="0" name="St. Moritz Bad, Via San Gian" fareZone="" fareSymbol="" startFare="" speed="20"/></timestep>
    <timestep time="308760"><vehicle id="2429.TA.92-1-N-j24-1.91.R" x="9.83716321687131" y="46.484948105022" until="60" name="St. Moritz Bad, Hallenbad" fareZone="" fareSymbol="" startFare="" speed="20"/></timestep>
    <timestep time="308880"><vehicle id="2429.TA.92-1-N-j24-1.91.R" x="9.84019053937921" y="46.4866737780177" until="180" name="St. Moritz Bad, Sonne" fareZone="" fareSymbol="" startFare="" speed="20"/></timestep>
    <timestep time="308940"><vehicle id="2429.TA.92-1-N-j24-1.91.R" x="9.83751355983216" y="46.4884859849912" until="240" name="St. Moritz Bad, Kath. Kirche" fareZone="" fareSymbol="" startFare="" speed="20"/></timestep>
    <timestep time="309000"><vehicle id="2429.TA.92-1-N-j24-1.91.R" x="9.83526777162155" y="46.488968405341" until="300" name="St. Moritz Bad, Via Salet" fareZone="" fareSymbol="" startFare="" speed="20"/></timestep>
    <timestep time="309060"><vehicle id="2429.TA.92-1-N-j24-1.91.R" x="9.83483658028511" y="46.49159690259" until="360" name="St. Moritz Bad, Via Aruons" fareZone="" fareSymbol="" startFare="" speed="20"/></timestep>
    <timestep time="309240"><vehicle id="2429.TA.92-1-N-j24-1.91.R" x="9.83904069581538" y="46.4983623794113" until="540" name="St. Moritz, Schulhausplatz" fareZone="" fareSymbol="" startFare="" speed="20"/></timestep>
    <timestep time="309300"><vehicle id="2429.TA.92-1-N-j24-1.91.R" x="9.83937307247055" y="46.4971874484028" until="600" name="St. Moritz, Klinik Gut" fareZone="" fareSymbol="" startFare="" speed="20"/></timestep>
    <timestep time="309420"><vehicle id="2429.TA.92-1-N-j24-1.91.R" x="9.84528398704088" y="46.4976759754318" until="780" name="St. Moritz, Bahnhof" fareZone="" fareSymbol="" startFare="" speed="20"/></timestep>
    <timestep time="309660"><vehicle id="2429.TA.92-1-N-j24-1.91.R" x="9.88268085232398" y="46.5084781033611" until="1020" name="Punt Muragl, Talstation" fareZone="" fareSymbol="" startFare="" speed="20"/></timestep>
    <timestep time="310020"><vehicle id="2429.TA.92-1-N-j24-1.91.R" x="9.89608371636491" y="46.4910341056312" until="1380" name="Pontresina, Bahnhof" fareZone="" fareSymbol="" startFare="" speed="20"/></timestep>
    <timestep time="336060"><vehicle id="2463.TA.92-1-N-j24-1.93.R" x="9.81044732031787" y="46.4774200668457" until="0" name="Champfèr, Guardalej" fareZone="" fareSymbol="" startFare="" speed="20"/></timestep>
    <timestep time="336180"><vehicle id="2463.TA.92-1-N-j24-1.93.R" x="9.81312429986492" y="46.4781190986457" until="120" name="Champfèr, Schulhaus" fareZone="" fareSymbol="" startFare="" speed="20"/></timestep>
    <timestep time="336240"><vehicle id="2463.TA.92-1-N-j24-1.93.R" x="9.82370645391332" y="46.4788614234688" until="180" name="St. Moritz Bad, Campingplatz" fareZone="" fareSymbol="" startFare="" speed="20"/></timestep>
    <timestep time="336360"><vehicle id="2463.TA.92-1-N-j24-1.93.R" x="9.83210570182101" y="46.4835254660462" until="300" name="St. Moritz Bad, Signalbahn" fareZone="" fareSymbol="" startFare="" speed="20"/></timestep>
    <timestep time="336420"><vehicle id="2463.TA.92-1-N-j24-1.93.R" x="9.83409996175203" y="46.4838038113818" until="360" name="St. Moritz Bad, Via San Gian" fareZone="" fareSymbol="" startFare="" speed="20"/></timestep>
    <timestep time="336480"><vehicle id="2463.TA.92-1-N-j24-1.93.R" x="9.83716321687131" y="46.484948105022" until="420" name="St. Moritz Bad, Hallenbad" fareZone="" fareSymbol="" startFare="" speed="20"/></timestep>
    <timestep time="336600"><vehicle id="2463.TA.92-1-N-j24-1.93.R" x="9.84019053937921" y="46.4866737780177" until="540" name="St. Moritz Bad, Sonne" fareZone="" fareSymbol="" startFare="" speed="20"/></timestep>
    <timestep time="336660"><vehicle id="2463.TA.92-1-N-j24-1.93.R" x="9.83751355983216" y="46.4884859849912" until="600" name="St. Moritz Bad, Kath. Kirche" fareZone="" fareSymbol="" startFare="" speed="20"/></timestep>
    <timestep time="336720"><vehicle id="2463.TA.92-1-N-j24-1.93.R" x="9.83526777162155" y="46.488968405341" until="660" name="St. Moritz Bad, Via Salet" fareZone="" fareSymbol="" startFare="" speed="20"/></timestep>
    <timestep time="336780"><vehicle id="2463.TA.92-1-N-j24-1.93.R" x="9.83483658028511" y="46.49159690259" until="720" name="St. Moritz Bad, Via Aruons" fareZone="" fareSymbol="" startFare="" speed="20"/></timestep>
    <timestep time="336960"><vehicle id="2463.TA.92-1-N-j24-1.93.R" x="9.83904069581538" y="46.4983623794113" until="900" name="St. Moritz, Schulhausplatz" fareZone="" fareSymbol="" startFare="" speed="20"/></timestep>
    <timestep time="337020"><vehicle id="2463.TA.92-1-N-j24-1.93.R" x="9.83937307247055" y="46.4971874484028" until="960" name="St. Moritz, Klinik Gut" fareZone="" fareSymbol="" startFare="" speed="20"/></timestep>
    <timestep time="337140"><vehicle id="2463.TA.92-1-N-j24-1.93.R" x="9.84528398704088" y="46.4976759754318" until="1080" name="St. Moritz, Bahnhof" fareZone="" fareSymbol="" startFare="" speed="20"/></timestep>
    <timestep time="374880"><vehicle id="2545.TA.92-1-N-j24-1.95.R" x="9.81378007002242" y="46.4550401189539" until="0" name="Surlej, Corvatschbahn" fareZone="" fareSymbol="" startFare="" speed="20"/></timestep>
    <timestep time="374940"><vehicle id="2545.TA.92-1-N-j24-1.95.R" x="9.81113902308674" y="46.4589759935165" until="60" name="Surlej, Foppas" fareZone="" fareSymbol="" startFare="" speed="20"/></timestep>
    <timestep time="375000"><vehicle id="2545.TA.92-1-N-j24-1.95.R" x="9.80385368613152" y="46.4597928374937" until="120" name="Surlej, Punt" fareZone="" fareSymbol="" startFare="" speed="20"/></timestep>
    <timestep time="375120"><vehicle id="2545.TA.92-1-N-j24-1.95.R" x="9.79811345146519" y="46.4604797195349" until="240" name="Silvaplana, Rundella Curtins" fareZone="" fareSymbol="" startFare="" speed="20"/></timestep>
    <timestep time="375300"><vehicle id="2545.TA.92-1-N-j24-1.95.R" x="9.82370645391332" y="46.4788614234688" until="420" name="St. Moritz Bad, Campingplatz" fareZone="" fareSymbol="" startFare="" speed="20"/></timestep>
    <timestep time="375420"><vehicle id="2545.TA.92-1-N-j24-1.95.R" x="9.83210570182101" y="46.4835254660462" until="540" name="St. Moritz Bad, Signalbahn" fareZone="" fareSymbol="" startFare="" speed="20"/></timestep>
    <timestep time="375480"><vehicle id="2545.TA.92-1-N-j24-1.95.R" x="9.83409996175203" y="46.4838038113818" until="600" name="St. Moritz Bad, Via San Gian" fareZone="" fareSymbol="" startFare="" speed="20"/></timestep>
    <timestep time="375540"><vehicle id="2545.TA.92-1-N-j24-1.95.R" x="9.83716321687131" y="46.484948105022" until="660" name="St. Moritz Bad, Hallenbad" fareZone="" fareSymbol="" startFare="" speed="20"/></timestep>
    <timestep time="375660"><vehicle id="2545.TA.92-1-N-j24-1.95.R" x="9.84019053937921" y="46.4866737780177" until="780" name="St. Moritz Bad, Sonne" fareZone="" fareSymbol="" startFare="" speed="20"/></timestep>
    <timestep time="375720"><vehicle id="2545.TA.92-1-N-j24-1.95.R" x="9.83751355983216" y="46.4884859849912" until="840" name="St. Moritz Bad, Kath. Kirche" fareZone="" fareSymbol="" startFare="" speed="20"/></timestep>
    <timestep time="375780"><vehicle id="2545.TA.92-1-N-j24-1.95.R" x="9.83526777162155" y="46.488968405341" until="900" name="St. Moritz Bad, Via Salet" fareZone="" fareSymbol="" startFare="" speed="20"/></timestep>
    <timestep time="375840"><vehicle id="2545.TA.92-1-N-j24-1.95.R" x="9.83483658028511" y="46.49159690259" until="960" name="St. Moritz Bad, Via Aruons" fareZone="" fareSymbol="" startFare="" speed="20"/></timestep>
    <timestep time="376020"><vehicle id="2545.TA.92-1-N-j24-1.95.R" x="9.83904069581538" y="46.4983623794113" until="1140" name="St. Moritz, Schulhausplatz" fareZone="" fareSymbol="" startFare="" speed="20"/></timestep>
    <timestep time="376080"><vehicle id="2545.TA.92-1-N-j24-1.95.R" x="9.83937307247055" y="46.4971874484028" until="1200" name="St. Moritz, Klinik Gut" fareZone="" fareSymbol="" startFare="" speed="20"/></timestep>
    <timestep time="376200"><vehicle id="2545.TA.92-1-N-j24-1.95.R" x="9.84528398704088" y="46.4976759754318" until="1320" name="St. Moritz, Bahnhof" fareZone="" fareSymbol="" startFare="" speed="20"/></timestep>
    <timestep time="401400"><vehicle id="2746.TA.92-1-N-j24-1.100.R" x="9.81113902308674" y="46.4589759935165" until="0" name="Surlej, Foppas" fareZone="" fareSymbol="" startFare="" speed="20"/></timestep>
    <timestep time="401460"><vehicle id="2746.TA.92-1-N-j24-1.100.R" x="9.80385368613152" y="46.4597928374937" until="60" name="Surlej, Punt" fareZone="" fareSymbol="" startFare="" speed="20"/></timestep>
    <timestep time="401580"><vehicle id="2746.TA.92-1-N-j24-1.100.R" x="9.79811345146519" y="46.4604797195349" until="180" name="Silvaplana, Rundella Curtins" fareZone="" fareSymbol="" startFare="" speed="20"/></timestep>
    <timestep time="401760"><vehicle id="2746.TA.92-1-N-j24-1.100.R" x="9.82370645391332" y="46.4788614234688" until="360" name="St. Moritz Bad, Campingplatz" fareZone="" fareSymbol="" startFare="" speed="20"/></timestep>
    <timestep time="401880"><vehicle id="2746.TA.92-1-N-j24-1.100.R" x="9.83210570182101" y="46.4835254660462" until="480" name="St. Moritz Bad, Signalbahn" fareZone="" fareSymbol="" startFare="" speed="20"/></timestep>
    <timestep time="401940"><vehicle id="2746.TA.92-1-N-j24-1.100.R" x="9.83409996175203" y="46.4838038113818" until="540" name="St. Moritz Bad, Via San Gian" fareZone="" fareSymbol="" startFare="" speed="20"/></timestep>
    <timestep time="402000"><vehicle id="2746.TA.92-1-N-j24-1.100.R" x="9.83716321687131" y="46.484948105022" until="600" name="St. Moritz Bad, Hallenbad" fareZone="" fareSymbol="" startFare="" speed="20"/></timestep>
    <timestep time="402120"><vehicle id="2746.TA.92-1-N-j24-1.100.R" x="9.84019053937921" y="46.4866737780177" until="720" name="St. Moritz Bad, Sonne" fareZone="" fareSymbol="" startFare="" speed="20"/></timestep>
    <timestep time="402180"><vehicle id="2746.TA.92-1-N-j24-1.100.R" x="9.83751355983216" y="46.4884859849912" until="780" name="St. Moritz Bad, Kath. Kirche" fareZone="" fareSymbol="" startFare="" speed="20"/></timestep>
    <timestep time="402240"><vehicle id="2746.TA.92-1-N-j24-1.100.R" x="9.83526777162155" y="46.488968405341" until="840" name="St. Moritz Bad, Via Salet" fareZone="" fareSymbol="" startFare="" speed="20"/></timestep>
    <timestep time="402300"><vehicle id="2746.TA.92-1-N-j24-1.100.R" x="9.83483658028511" y="46.49159690259" until="900" name="St. Moritz Bad, Via Aruons" fareZone="" fareSymbol="" startFare="" speed="20"/></timestep>