<?xml version="1.0" encoding="UTF-8"?>

<!-- generated by Eclipse SUMO sumo 1.26.0
<sumoConfiguration xmlns:xsi="http://www.w3.org/2001/XMLSchema-instance" xsi:noNamespaceSchemaLocation="http://sumo.dlr.de/xsd/sumoConfiguration.xsd">

    <input>
        <net-file value="C:\Users\flori\AppData\Local\Programs\Microsoft VS Code\maloja\osm.net.xml.gz"/>
        <route-files value="C:\Users\flori\AppData\Local\Programs\Microsoft VS Code\maloja\trips.trips.xml"/>
        <additional-files value="C:\Users\flori\AppData\Local\Programs\Microsoft VS Code\maloja\osm_stops.add.xml"/>
    </input>

    <output>
        <vehroute-output value="C:\Users\flori\AppData\Local\Programs\Microsoft VS Code\maloja\vehroutes.xml"/>
        <stop-output value="C:\Users\flori\AppData\Local\Programs\Microsoft VS Code\maloja\stopinfos.xml"/>
    </output>

    <time>
        <begin value="0.0"/>
    </time>

    <processing>
        <ignore-route-errors value="true"/>
        <time-to-teleport.disconnected value="0"/>
    </processing>

    <routing>
        <device.rerouting.adaptation-interval value="0"/>
    </routing>

    <report>
        <aggregate-warnings value="5"/>
        <error-log value="C:\Users\flori\AppData\Local\Programs\Microsoft VS Code\maloja\trips.trips.xml.errorlog"/>
        <no-step-log value="true"/>
    </report>

</sumoConfiguration>
-->

<routes xmlns:xsi="http://www.w3.org/2001/XMLSchema-instance" xsi:noNamespaceSchemaLocation="http://sumo.dlr.de/xsd/routes_file.xsd">
    <vehicle id="2_bus_A45:0" type="pt_bus" depart="15.00" departLane="0" arrival="221.00">
        <route edges="840948500 314323733#0 314323733#1 314323733#2 1093319496 251088444"/>
        <stop busStop="5838018492" duration="30.00"/>
        <stop busStop="345319688" duration="30.00"/>
    </vehicle>

    <vehicle id="21_bus_522:0" type="pt_bus" depart="126.00" departLane="0" arrival="316.00">
        <route edges="-445488113 -1281098900 -445488114#1 -445488114#0 -35002461#2 -35002461#1 -35002461#0 -136646977#1 -136646977#0 -136646979 -136646981#2 -136646981#1 -136646981#0"/>
        <stop busStop="-1216746414" duration="30.00"/>
    </vehicle>

    <vehicle id="22_bus_522:1" type="pt_bus" depart="131.00" departLane="0" arrival="323.00">
        <route edges="136646981#0 136646981#1 136646981#2 136646981#3 136646977#0 136646977#1 35002461#0 35002461#1 35002461#2 445488114#0 445488114#1 445488114#2 445488113"/>
        <stop busStop="1216746414@12261477" duration="30.00"/>
    </vehicle>

    <vehicle id="26_bus_571:1" type="pt_bus" depart="136.00" departLane="0" arrival="379.00">
        <route edges="596221490 596221483 472381594 690955699 31062337 106642925 690955698#0 690955698#1 690955698#2 40588762 1264442844 40588764 316212235 -40588765#0 -124981129#4 -124981129#3 -124981129#2 -124981129#1 -124981129#0"/>
        <stop busStop="291628967" duration="30.00"/>
        <stop busStop="-984712126" duration="30.00"/>
        <stop busStop="-502912864" duration="30.00"/>
    </vehicle>

    <vehicle id="25_bus_571:0" type="pt_bus" depart="133.00" departLane="0" arrival="384.00">
        <route edges="124981129#0 124981129#1 124981129#2 124981129#3 124981129#4 40588765#0 75390708 75390642 1264442846 124095377 -690955698#2 -690955698#1 -690955698#0 -106642925 -31062337 -390458331 -472381594 -596221483 -596221490"/>
        <stop busStop="502912864" duration="30.00"/>
        <stop busStop="984712126" duration="30.00"/>
        <stop busStop="-291628967" duration="30.00"/>
    </vehicle>

    <vehicle id="23_bus_541:0" type="pt_bus" depart="131.00" departLane="0" arrival="537.00">
        <route edges="-77363681#4 -77363681#3 -77363681#2 -77363681#1 -77363681#0 -809321086#1 -809321086#0 -105664819#1 -105664822#2 -105664822#1 -105664822#0 -105664838 -105664834#1 -105664834#0 -105664812#1 -105664812#0 -67384389 -105664825#0 -105664815#0 -614229171#0 -105664816 -136646977#1 -136646977#0 -136646979 -136646981#2 -136646981#1 -136646981#0"/>
        <stop busStop="-813777342" duration="30.00"/>
        <stop busStop="-813777364" duration="30.00"/>
        <stop busStop="-1216746414@12267247" duration="30.00"/>
    </vehicle>

    <vehicle id="8_bus_812:0" type="pt_bus" depart="38.00" departLane="0" arrival="680.00">
        <route edges="894928280 490866009#2 1189739679#0 -311019433#2 -311019433#1 -311019433#0 -1189739678 894940512#0 894940511#0 -894940511#0 -894940512#1 -1189739677 -502426864#1 -502426864#0 -299766956#1 -299766956#0 -1251076746 -1098290439 -1189739674 -1277640405 -390491046#3 -390491046#2 -390491046#1 -390491046#0 -299766955#4 -299766955#3 -299766955#2 -299766955#1 -299766955#0 -1390771916 -299766977#1 -299766977#0 -1277640407#1 -1277640407#0 -1189739672 -210620161#1 -210620161#0 -1189739671#0 -140549298#7 -140549298#6 -140549298#5 -140549298#4 -140549298#3 -140549298#2 -140549298#1 -140549298#0 -140549297#1 -140549297#0 -210636467#3 -210636467#2 -210636467#1 -210636467#0 -72857757#1 -72857757#0"/>
        <stop busStop="984711804" duration="30.00"/>
        <stop busStop="1838723674" duration="30.00"/>
        <stop busStop="-984712730" duration="30.00"/>
        <stop busStop="-33786948" duration="30.00"/>
    </vehicle>

    <vehicle id="17_bus_188:0" type="pt_bus" depart="98.00" departLane="0" arrival="698.00">
        <route edges="897592618 -897592619 230537774#0 230537774#1 230537774#2 230537774#3 230537774#4 230537774#5 230537774#6 230537774#7 1469637052#0 1469637052#2 1469637052#3 1469637052#4 230537773 230537772#1 35833440#0 35833440#2 35833440#3 35833440#4 906616483#1 906616483#2 906616483#3 170975832#0 170975832#1 170975832#2 170975832#3 170975833 230537771 230537766 230537767#0 230537767#1 230537769 -897901304 -850237415#1 -850237415#0 -897901306 897901306 850237415#0 850237415#1 897901304 944815835 850237416 850237403 1301815810 116515434"/>
        <stop busStop="292675892" duration="30.00"/>
        <stop busStop="6551343341" duration="30.00"/>
        <stop busStop="984712360" duration="30.00"/>
        <stop busStop="984712402" duration="30.00"/>
    </vehicle>

    <vehicle id="18_bus_188:1" type="pt_bus" depart="102.00" departLane="0" arrival="700.00">
        <route edges="-116515434 -1301815810 -850237403 -850237416 -944815835 -897901304 -850237415#1 -850237415#0 -897901306 897901306 850237415#0 850237415#1 897901304 -230537769 -230537768 -230537767#0 -230537766 -230537762 -170975833 -170975832#3 -170975832#2 -170975832#1 -170975832#0 -906616483#3 -906616483#2 -906616483#1 -906616483#0 -35833440#3 -35833440#2 -35833440#0 -230537772#1 -230537772#0 -1469637052#4 -1469637052#3 -1469637052#2 -1469637052#0 -230537774#7 -230537774#6 -230537774#5 -230537774#4 -230537774#3 -230537774#2 -230537774#1 -230537774#0 897592619 230537757"/>
        <stop busStop="-984712402" duration="30.00"/>
        <stop busStop="984712360" duration="30.00"/>
        <stop busStop="-6551343341" duration="30.00"/>
        <stop busStop="292675892@12217048" duration="30.00"/>
    </vehicle>

    <vehicle id="28_bus_573:0" type="pt_bus" depart="139.00" departLane="0" arrival="705.00">
        <route edges="-316213624#1 -316213624#0 -813107376 -35833436#1 -35833436#0 -170975839#1 -170975839#0 -690960934#1 -690960934#0 -607472039 -170975840#8 -170975840#7 -170975840#6 -170975840#5 -170975840#4 -170975840#3 -170975840#2 -170975840#1 -170975840#0 -607472040 -607472041#2 -607472041#1 -607472041#0 -170975838 -75390659 -607472042 -75390712 -69158786#3 -69158786#1 -69158786#0 -607472043 -69158782#0 -1467922121 69158836 596221476 472375537 472375538 316213621 689524678 390458386 596221449"/>
        <stop busStop="-5954436249" duration="30.00"/>
        <stop busStop="-849784982" duration="30.00"/>
        <stop busStop="903914770" duration="30.00"/>
        <stop busStop="291628967@12270155" duration="30.00"/>
    </vehicle>

    <vehicle id="59_bus_632:0" type="pt_bus" depart="346.00" departLane="0" arrival="726.00">
        <route edges="1083356000 520821161#0 520821161#1 614559903 120839519#1 120829160 171771445 550605628 -429497064 -1426892773 -429497063#1 -429497063#0 -1187206777 -370855281#7 -370855281#6 -370855281#5 -370855281#4 -370855281#3 -370855281#2 -370855281#1 -370855281#0 -1083261779 -1083261781#1 -1083261781#0 -1083261780 -429497062#1 -429497062#0 -1083277954 -62065386"/>
        <stop busStop="5059356043@12278858" duration="30.00"/>
        <stop busStop="-984704021" duration="30.00"/>
        <stop busStop="-9175537273" duration="30.00"/>
        <stop busStop="-984705902" duration="30.00"/>
    </vehicle>

    <vehicle id="14_bus_182:3" type="pt_bus" depart="60.00" departLane="0" arrival="732.00">
        <route edges="596221490 596221483 472381594 690955699 -106642932 -813113275#3 -813113275#1 -813113275#0 -645430765#5 -645430765#4 -645430765#3 -645430765#2 -645430765#1 -645430765#0 -1182954789 -645430773 -541984156 -77047613#3 -77047613#2 -77047613#1 -77047613#0 -93469965#3 -93469965#2 -93469965#1 -93469965#0 -93467190 -127569289#2 -127569289#1 29377506#0 29377506#1 599970589 954879497 690134085#0 690134085#1 690134085#2 690134085#3 690134085#4 -30082066 -199799666 124064405 -75727881 30082066 897592624#1 897592624#2 897592624#3 897592624#4 897592624#6 897592624#7 897592624#8 897592624#9 897592624#10 897592624#11 897592624#12 897592624#13 1468627518 1347762750#0 690751814#1"/>
        <stop busStop="291628967" duration="30.00"/>
        <stop busStop="-903916646" duration="30.00"/>
        <stop busStop="-5303364150" duration="30.00"/>
        <stop busStop="331339192" duration="30.00"/>
        <stop busStop="331339240" duration="30.00"/>
        <stop busStop="1381741108" duration="30.00"/>
        <stop busStop="5303347931" duration="30.00"/>
    </vehicle>

    <vehicle id="32_bus_581:2" type="pt_bus" depart="160.00" departLane="0" arrival="772.00">
        <route edges="-853527378 -690960932#5 -690960932#4 -690960932#3 -690960932#2 -690960932#1 -690960932#0 -1474671514 -172975276#2 -172975276#1 -172975276#0 -1290257199#2 -1290257199#1 -1290257199#0 -1474671513#1 -1474671513#0 -690960933#3 -690960933#2 -690960933#1 -690960933#0 -30082157 -316213623 -29377533#2 -29377533#1 -29377533#0 35833436#0 35833436#1 1339042729 917163020 316213624#1"/>
        <stop busStop="-860597065" duration="30.00"/>
        <stop busStop="-331337795" duration="30.00"/>
        <stop busStop="-984712717" duration="30.00"/>
        <stop busStop="-984712725" duration="30.00"/>
        <stop busStop="-331335350" duration="30.00"/>
        <stop busStop="-331333728" duration="30.00"/>
        <stop busStop="5954436249" duration="30.00"/>
    </vehicle>

    <vehicle id="13_bus_182:2" type="pt_bus" depart="60.00" departLane="0" arrival="778.00">
        <route edges="-690751814#1 -1347762750#0 -1468627518 -897592624#13 -897592624#12 -897592624#11 -897592624#10 -897592624#9 -897592624#8 -897592624#7 -897592624#6 -897592624#4 -897592624#3 -897592624#2 -897592624#1 -30082066 -199799666 124064405 -75727881 30082066 -690134082 -690134085#3 -690134085#2 -690134085#1 -690134085#0 -954879497 -954879498 -29377506#1 -29377506#0 127569289#1 127569289#2 93467190 93469965#0 93469965#1 93469965#2 93469965#3 77047613#0 77047613#1 77047613#2 77047613#3 541984156 645430773 1182954789 1347762175 645430765#1 645430765#2 645430765#3 645430765#4 645430765#5 813113275#0 813113275#1 813113275#3 106642932 -390458331 -472381594 -596221483 -596221490"/>
        <stop busStop="-5303347931" duration="30.00"/>
        <stop busStop="-80118926" duration="30.00"/>
        <stop busStop="331339240" duration="30.00"/>
        <stop busStop="-331339192" duration="30.00"/>
        <stop busStop="5303364150" duration="30.00"/>
        <stop busStop="331333771" duration="30.00"/>
        <stop busStop="-291628967" duration="30.00"/>
    </vehicle>

    <vehicle id="6_bus_609:0" type="pt_bus" depart="27.00" departLane="0" arrival="783.00">
        <route edges="-96461180#6 -96461180#5 -96461180#4 -96461180#3 -96461180#1 -96461180#0 -30050433#3 -30050433#2 -30050433#1 -30050433#0 51814855 170940321#0 170940321#1 -170952324#5 -170952324#3 -170952324#2 -170952324#1 -170952324#0 170952324#0 170952324#1 170952324#2 170952324#3 170952324#5 170952322#0 170952322#1 382202904#0 382202904#1 382202904#2 382202904#3 382202904#4 1441721435 1132581922 30957915 51814854 89726022 89726026#1 89726026#2 89726026#3 1113136564#0 1113136564#1 120840705#1 120840705#2 120840705#3 120840705#4 120840705#5 120840705#6 120840705#7 631302139#0 631302139#1 631302139#2 631302139#3 631302139#4 916468196#0 916468196#1 89724876#1 89724876#2 89724876#3 72562096#0 916468197 904728442 519913261#0 519913261#1 897620166 519913259 903495401 894516575 268146935#0 120840712#0 -47578286 1068735342#0 1068735342#1 819942945#0 819942945#2 1068735337 152520535 819942944#2 819942944#3 819942944#4 819945211 1467922383 819945210#0 819945210#1 1467922382 25303489#0 25303489#2 894576901#0 894576901#1 894576901#2"/>
        <stop busStop="-984713694" duration="30.00"/>
        <stop busStop="-984713691" duration="30.00"/>
        <stop busStop="6160988058" duration="30.00"/>
        <stop busStop="-6158908793" duration="30.00"/>
        <stop busStop="821153230" duration="30.00"/>
        <stop busStop="984711735" duration="30.00"/>
        <stop busStop="5068626633" duration="30.00"/>
        <stop busStop="8418159012" duration="30.00"/>
        <stop busStop="6863413612" duration="30.00"/>
    </vehicle>

    <vehicle id="72_bus_632:1" type="pt_bus" depart="406.00" departLane="0" arrival="786.00">
        <route edges="62065386 1083277954 429497062#0 429497062#1 1083261780 1083261781#0 1083261781#1 1083261779 370855281#0 370855281#1 370855281#2 370855281#3 370855281#4 370855281#5 370855281#6 370855281#7 1187206777 429497063#0 429497063#1 1426892773 429497064 -550605628 -550605631 -120829160 -120829141 1083356001 1083356002"/>
        <stop busStop="984705902" duration="30.00"/>
        <stop busStop="9175537273" duration="30.00"/>
        <stop busStop="984704021" duration="30.00"/>
        <stop busStop="5059356043@1656135" duration="30.00"/>
    </vehicle>

    <vehicle id="29_bus_573:1" type="pt_bus" depart="177.00" departLane="0" arrival="810.00">
        <route edges="596221490 -596221454#1 -596221454#0 -689524678 -106642933 -472375538 69158836 596221476 472375537 1467922121 69158889 69158782#1 69158786#0 69158786#1 69158786#3 75390712 607472042 75390659 170975838 607472041#0 607472041#1 607472041#2 607472040 170975840#0 170975840#1 170975840#2 170975840#3 170975840#4 170975840#5 170975840#6 170975840#7 170975840#8 607472039 690960934#0 690960934#1 170975839#0 170975839#1 35833436#0 35833436#1 1339042729 917163020 316213624#1"/>
        <stop busStop="291628967" duration="30.00"/>
        <stop busStop="903914770" duration="30.00"/>
        <stop busStop="849784982" duration="30.00"/>
        <stop busStop="5954436249" duration="30.00"/>
    </vehicle>

    <vehicle id="36_bus_591:0" type="pt_bus" depart="173.00" departLane="0" arrival="820.00">
        <route edges="945265859#5 -129935454#1 -129935454#0 1098087031 1098087032 41953369#0 41953369#1 1098087034 1214619544#0 1214619544#1 -181219422#0 22529831#0 22529831#3 22529831#4 22529831#5 -1098087035#1 -1098087035#0 -891737421 -181218808#4 -181218808#3 -181218808#2 -181218808#1 -181218808#0 -70810995#1 -70810995#0 -70810996 -70811011#1 -70811011#0 -129695441#1 -59275382 -22987121 22987122#0 -22987122#1 -59275390#3 -59275390#2 -59275390#1 -59275390#0 -27743158 -59141326#0 -471754805 -127417609"/>
        <stop busStop="984713941" duration="30.00"/>
        <stop busStop="984712802" duration="30.00"/>
        <stop busStop="247803148" duration="30.00"/>
        <stop busStop="-733167274" duration="30.00"/>
    </vehicle>

    <vehicle id="37_bus_592:0" type="pt_bus" depart="188.00" departLane="0" arrival="858.00">
        <route edges="-70810788#3 -70810788#2 -70810788#1 -70810788#0 -1300064502 -1300064501#2 -1300064501#1 -1300064501#0 -70810937#0 -1300064500#0 -1300064499#0 -1098369439 -1409477271 -22529828 -1300064498#0 -1300064495#1 -1300064495#0 -1098369437 -70810995#1 -70810995#0 -70810996 -70811011#1 -70811011#0 -129695441#1 -59275382 -22987121 22987122#0"/>
        <stop busStop="-375965640" duration="30.00"/>
        <stop busStop="-492816907" duration="30.00"/>
        <stop busStop="247803148" duration="30.00"/>
    </vehicle>

    <vehicle id="97_bus_541:1" type="pt_bus" depart="574.00" departLane="0" arrival="979.00">
        <route edges="136646981#0 136646981#1 136646981#2 136646981#3 136646977#0 136646977#1 105664816 1298870268 614229171#1 105664815#1 105664825#2 1091360224#1 105664812#1 400111005 105664834#1 105664838 105664822#0 105664822#1 105664822#2 105664819#1 105664819#2 809321086#1 809321086#2 77363681#1 77363681#2 77363681#3 77363681#4"/>
        <stop busStop="1216746414@12267247" duration="30.00"/>
        <stop busStop="813777364" duration="30.00"/>
        <stop busStop="813777342" duration="30.00"/>
    </vehicle>

    <vehicle id="75_bus_591:1" type="pt_bus" depart="418.00" departLane="0" arrival="1059.00">
        <route edges="127417609 471754805 59141326#0 59141326#2 59275390#0 59275390#1 59275390#2 59275390#3 22987122#0 -22987122#1 22987121 59275382 129695441#1 49857838 70811011#1 1098369440 70810995#0 70810995#1 181218808#0 181218808#1 181218808#2 181218808#3 181218808#4 891737421 1098087035#0 1098087035#1 -22529831#5 -22529831#4 -22529831#3 -22529831#0 181219422#0 -1214619544#1 -1214619544#0 -1098087034 -41953369#1 -41953369#0 -1098087032 -1098087031 129935454#0 129935454#1 -903407330"/>
        <stop busStop="733167274" duration="30.00"/>
        <stop busStop="247803148" duration="30.00"/>
        <stop busStop="-984712802" duration="30.00"/>
        <stop busStop="-984713941" duration="30.00"/>
    </vehicle>

    <vehicle id="74_bus_592:1" type="pt_bus" depart="410.00" departLane="0" arrival="1072.00">
        <route edges="-22987122#1 22987121 59275382 129695441#1 49857838 70811011#1 1098369440 70810995#0 70810995#1 1098369437 1098369438 1300064495#1 1300064498#0 1300064498#1 1409477271 1098369439 1409477272 1300064499#1 1300064500#1 70810937#1 1300064501#1 1300064501#2 1300064502 70810788#0 70810788#1 70810788#2 70810788#3"/>
        <stop busStop="-247803148" duration="30.00"/>
        <stop busStop="492816907" duration="30.00"/>
        <stop busStop="375965640" duration="30.00"/>
    </vehicle>

    <vehicle id="49_bus_606:1" type="pt_bus" depart="253.00" departLane="0" arrival="1077.00">
        <route edges="1068735330#7 30957906 1068735331 -30952515#1 -30952515#0 72562019#0 72562019#1 72562019#2 72562019#3 72562019#4 1435131955#1 1435131955#2 894841757 894841758 1219872251 30957907 1219872250 1219872249#0 1219872249#1 89727907 89727905#1 501346486 543256263#4 543256263#1 543256263#2 -543256264#1 -543256264#0 -1435131960#2 -1435131960#1 -268146971#4 -268146971#3 -268146971#2 -268146971#1 -268146971#0 769993301#3 769993301#4 769993301#5 19724261 170952324#0 170952324#1 170952324#2 170952324#3 170952324#5 -170940321#1 -170940321#0 -51814855 30050433#0 30050433#1 30050433#2 30050433#3 -819945220#2 -819945220#1 -819945220#0 -120840708 -30957915 -914487470 -25303411#0 14014144#0 14014144#1 14014144#2 25303487#0 25303487#1 25303487#2 25303487#3 25303487#4 25303487#5 25303487#6 152517715#0 152517715#1 152517715#3 152517715#4 152517443#0 152517443#1 152517443#2 819945209 819945210#0 819945210#1 1467922382 25303489#0 25303489#2 894576901#0 894576901#1 894576901#2"/>
        <stop busStop="344235044@12273371" duration="30.00"/>
        <stop busStop="-344235049" duration="30.00"/>
        <stop busStop="821153290" duration="30.00"/>
        <stop busStop="-821153226" duration="30.00"/>
        <stop busStop="6158545029" duration="30.00"/>
        <stop busStop="-6160988058" duration="30.00"/>
        <stop busStop="984711733" duration="30.00"/>
        <stop busStop="-821153224" duration="30.00"/>
        <stop busStop="8148908619" duration="30.00"/>
        <stop busStop="275619003" duration="30.00"/>
        <stop busStop="6863413612" duration="30.00"/>
    </vehicle>

    <vehicle id="50_bus_606:2" type="pt_bus" depart="275.00" departLane="0" arrival="1112.00">
        <route edges="25412019 -25303489#2 -25303489#0 -1467922382 894576902 25303490 -152517443#2 -152517443#1 -152517443#0 -152517715#4 -152517715#3 -152517715#1 -152517715#0 -25303487#6 -25303487#5 -25303487#4 -25303487#3 -25303487#2 -25303487#1 -25303487#0 14014144#3 14014144#4 14014144#5 25303411#0 25303411#1 30957915 120840708 819945220#0 819945220#1 819945220#2 -30050433#3 -30050433#2 -30050433#1 -30050433#0 51814855 170940321#0 170940321#1 -170952324#5 -170952324#3 -170952324#2 -170952324#1 -170952324#0 -19724261 769993301#0 769993301#1 769993301#2 268146971#0 268146971#1 268146971#2 268146971#3 268146971#4 1435131960#1 1435131960#2 1435131960#3 543256264#1 543256263#3 -501346486 -89727905#1 -89727905#0 -1219872249#1 -1219872249#0 -1219872250 -30957907 -1219872251 -894841758 -894841757 -1435131955#2 -1435131955#1 -1435131955#0 -72562019#3 -72562019#2 -72562019#1 -72562019#0 -72562018 -1493002173 -1493002100 -209049905#0 -1068735330#5 -1068735330#4 -1068735330#2 -1068735330#1 1068735330#1 1068735330#2 1068735330#4 1068735330#5 1068735330#7"/>
        <stop busStop="1651603778" duration="30.00"/>
        <stop busStop="-984713786" duration="30.00"/>
        <stop busStop="-275619003" duration="30.00"/>
        <stop busStop="-1117627228" duration="30.00"/>
        <stop busStop="6782402555" duration="30.00"/>
        <stop busStop="-6782402546" duration="30.00"/>
        <stop busStop="6158908792" duration="30.00"/>
        <stop busStop="-6158908793" duration="30.00"/>
        <stop busStop="4665151686" duration="30.00"/>
        <stop busStop="-821153295" duration="30.00"/>
        <stop busStop="344235044" duration="30.00"/>
    </vehicle>

    <vehicle id="27_bus_572:0" type="pt_bus" depart="140.00" departLane="0" arrival="1204.00">
        <route edges="596221490 -596221454#1 -596221454#0 -689524678 -106642933 -472375538 69158836 -9884026#2 -9884026#1 -9884026#0 -472375539 1085798467 26592238#1 26592238#2 26592238#3 316213622 -1187885921 374158123 689365175#0 689365175#1 689365175#2 472373179#0 472373179#1 374158120#0 374158120#1 374158120#2 374158120#3 374158120#4 591634927#1 591634926 75390715 591634929#0 591634929#1 75390607#0 75390607#1 127420372 472370028 472370027 374158119 127420371 472370029#0 472370029#1 374158117#0 374158117#1 35916775 472367229#0 472367229#1 314386925#1 314386925#2 314386925#3 314386925#4 472367230#0 472367230#1 591644951#0 591644951#1 591644951#2 472367231#0 472367231#1 472367232 472364554 1259390271 472364555#0 472364555#1 472364555#2 472364555#3 68286120 1259390274 1259390275 68286119 1259390276 -1259390278 -449102461#3 -449102461#2 -449102461#1 -449102461#0 127419774#0 127419774#1 127419774#2 592189249 591644944#0 591644944#1 37222044#0 37222044#1 37222044#2 37222044#3 37222044#4 37222044#5 304229642#0 690318937"/>
        <stop busStop="291628967" duration="30.00"/>
        <stop busStop="903914770" duration="30.00"/>
        <stop busStop="984713604" duration="30.00"/>
        <stop busStop="6491922934" duration="30.00"/>
        <stop busStop="291840311" duration="30.00"/>
        <stop busStop="984712111" duration="30.00"/>
        <stop busStop="5303364149" duration="30.00"/>
        <stop busStop="433476414" duration="30.00"/>
        <stop busStop="5680501401" duration="30.00"/>
    </vehicle>

    <vehicle id="9_bus_812:1" type="pt_bus" depart="47.00" departLane="0" arrival="1245.00">
        <route edges="72857757#0 72857757#1 72857757#2 210636467#1 210636467#2 210636467#3 140549297#0 140549297#1 140549298#0 140549298#1 140549298#2 140549298#3 140549298#4 140549298#5 140549298#6 140549298#7 1189739671#0 1189739671#1 210620161#1 1189739672 1277640407#0 1277640407#1 299766977#0 299766977#1 1390771916 299766955#0 299766955#1 299766955#2 299766955#3 299766955#4 390491046#0 390491046#1 390491046#2 390491046#3 1277640405 1189739674 1277640404#1 1251076746 299766956#0 299766956#1 502426864#0 502426864#1 1189739677 894940512#0 894940511#0 -894940511#0 -894940512#1 -1189739677 -502426864#1 -502426864#0 -299766956#1 -299766956#0 -1251076746 -1098290439 -1189739674 -1277640405 -390491046#3 -390491046#2 -390491046#1 -390491046#0 -299766955#4 -299766955#3 -299766955#2 -299766955#1 -299766955#0 -1390771916 -299766977#1 -299766977#0 -1277640407#1 -1277640407#0 -1189739672 -210620161#1 -210620161#0 -1189739671#0 -140549298#7 -140549298#6 -140549298#5 -140549298#4 -140549298#3 -140549298#2 -140549298#1 140549298#1 140549298#2 140549298#3 140549298#4 140549298#5 140549298#6 140549298#7 1189739671#0 1189739671#1 210620161#1 1189739672 1277640407#0 1277640407#1 299766977#0 299766977#1 1390771916 299766955#0 299766955#1 299766955#2 299766955#3 299766955#4 390491046#0 390491046#1 390491046#2 390491046#3 1277640405 1189739674 1277640404#1 1251076746 299766956#0 299766956#1 502426864#0 502426864#1 1189739677 1189739678 311019433#0 311019433#1 311019433#2 -1189739679#0 894928280"/>
        <stop busStop="984712730" duration="30.00"/>
        <stop busStop="1838723674" duration="30.00"/>
        <stop busStop="11016996762" duration="30.00"/>
        <stop busStop="984711804" duration="30.00"/>
    </vehicle>

    <vehicle id="88_bus_609:1" type="pt_bus" depart="508.00" departLane="0" arrival="1265.00">
        <route edges="25412019 -25303489#2 -25303489#0 -1467922382 894576902 25303490 819945209 -1467922383 -819945211 -819942944#4 -819942944#3 -819942944#2 -152520535 -1068735337 -819942945#2 -819942945#0 -1068735342#1 -1068735342#0 47578286 -120840712#0 -903531446 519913265#0 519913265#1 903495401 894516575 268146935#0 -903531446 -120840710 -897592613 -904728442 -916468197 916468198#1 916468198#2 89724876#5 1189801664 1189801665 916468195#0 916468195#1 -631302139#4 -631302139#3 -631302139#2 -631302139#1 -631302139#0 -120840705#7 -120840705#6 -120840705#5 -120840705#4 -120840705#3 -120840705#2 -120840705#1 -1113136564#1 -1113136564#0 -89726026#3 -89726026#2 -89726026#1 -89726026#0 -51814854 -30957915 -1132581922 -1441721435 -382202904#4 -382202904#3 -382202904#2 -382202904#1 -382202904#0 -170952322#1 -170952322#0 -170952324#5 -170952324#3 -170952324#2 -170952324#1 -170952324#0 170952324#0 170952324#1 170952324#2 170952324#3 170952324#5 -170940321#1 -170940321#0 -51814855 30050433#0 30050433#1 30050433#2 30050433#3 96461180#0 96461180#1 96461180#3 96461180#4 96461180#5 96461180#6"/>
        <stop busStop="1651603778" duration="30.00"/>
        <stop busStop="-984713809" duration="30.00"/>
        <stop busStop="8418159014" duration="30.00"/>
        <stop busStop="-4665151684" duration="30.00"/>
        <stop busStop="-4665151685" duration="30.00"/>
        <stop busStop="-6158545029" duration="30.00"/>
        <stop busStop="-6160988058" duration="30.00"/>
        <stop busStop="984713691" duration="30.00"/>
        <stop busStop="984713694" duration="30.00"/>
    </vehicle>

    <vehicle id="34_bus_582:0" type="pt_bus" depart="165.00" departLane="0" arrival="1319.00">
        <route edges="804905485 897592621#0 897592621#1 1471911982 200933441 1036240007#0 1036240007#1 1036240007#2 -818486760#6 -818486760#5 -818486760#4 -818486760#3 -818486760#2 -1036095972#2 -1036095972#1 -1036095972#0 -853527371 -39200992 -39200974 -185668421 -231854090 -849034107#1 849034107#1 231854090 185668421 39200974 39200992 853527371 1036095972#0 1036095972#1 -1036095972#1 -1036095972#0 1036095972#0 1036095972#1 1036095972#2 818486760#2 818486760#3 818486760#4 818486760#5 818486760#6 -818486760#6 -818486760#5 -818486760#4 -818486760#3 818486760#3 818486760#4 818486760#5 818486760#6 200933442#0 200933442#1 200933442#3 -39200963#3 -39200963#2 -39200963#0 -1313544739#2 -1313544739#1 -1313544739#0 -39200972#5 -39200972#4 -39200972#3 -39200972#2 -39200972#1 -39200972#0 231720306#0 231720306#1 231720306#2 231720306#3 231720306#4 133289134 -56472771#4 -56472771#3 -56472771#2 -56472771#1 -56472771#0 -110187293#4 -110187293#3 -110187293#2 -110187293#1 -110187293#0 -56464389#6 -56464389#5 -56464389#4 -56464389#3 -56464389#2 -56464389#0 1219873850 246065193#0 246065193#1 246065193#2 246065193#3 246065193#4 804905485"/>
        <stop busStop="831897878" duration="30.00"/>
        <stop busStop="-8390623920" duration="30.00"/>
        <stop busStop="-8390623919" duration="30.00"/>
        <stop busStop="-4724569889" duration="30.00"/>
        <stop busStop="-8390623919" duration="30.00"/>
        <stop busStop="-8390623920" duration="30.00"/>
        <stop busStop="4726149882" duration="30.00"/>
        <stop busStop="-8390623921" duration="30.00"/>
        <stop busStop="-8390623922" duration="30.00"/>
        <stop busStop="-8390623924" duration="30.00"/>
        <stop busStop="8390623925" duration="30.00"/>
        <stop busStop="-8390623926" duration="30.00"/>
        <stop busStop="-8390623927" duration="30.00"/>
        <stop busStop="-8390623928" duration="30.00"/>
        <stop busStop="831897878" duration="30.00"/>
    </vehicle>

    <vehicle id="35_bus_582:1" type="pt_bus" depart="166.00" departLane="0" arrival="1322.00">