<?xml version="1.0" encoding="UTF-8"?>

<!-- generated by Eclipse SUMO gtfs2fcd.py v1_26_0+0000-fa7df22d7f1
<configuration>
    <gtfs value="D:\Dokumente\sumo\maloja\03_bus\03_November\GTFS_FP2024_2024-11-14.zip"/>
    <date value="20240822"/>
    <modes value="bus"/>
    <network value="D:\Dokumente\sumo\maloja\osm_modded.net.xml"/>
    <stops value="D:\Dokumente\sumo\maloja\03_bus\osm_stops.add.xml"/>
    <repair value="True"/>
</configuration>
-->

<fcd-export>
    <timestep time="64800"><vehicle id="1008.TA.92-1-N-j24-1.88.H" x="9.87303295" y="46.53375918" until="0" name="Samedan, Bahnhof" fareZone="" fareSymbol="" startFare="" speed="20"/></timestep>
    <timestep time="64860"><vehicle id="1008.TA.92-1-N-j24-1.88.H" x="9.87203582" y="46.53526702" until="120" name="Samedan, Post" fareZone="" fareSymbol="" startFare="" speed="20"/></timestep>
    <timestep time="64860"><vehicle id="1008.TA.92-1-N-j24-1.88.H" x="9.87104767" y="46.53456872" until="120" name="Samedan, Chesa Planta" fareZone="" fareSymbol="" startFare="" speed="20"/></timestep>
    <timestep time="64920"><vehicle id="1008.TA.92-1-N-j24-1.88.H" x="9.8693768" y="46.53303614" until="180" name="Samedan, Central" fareZone="" fareSymbol="" startFare="" speed="20"/></timestep>
    <timestep time="64980"><vehicle id="1008.TA.92-1-N-j24-1.88.H" x="9.87146089" y="46.53058269" until="240" name="Samedan, Golf" fareZone="" fareSymbol="" startFare="" speed="20"/></timestep>
    <timestep time="65040"><vehicle id="1008.TA.92-1-N-j24-1.88.H" x="9.8734282" y="46.53131812" until="300" name="Samedan, Porta Samedan" fareZone="" fareSymbol="" startFare="" speed="20"/></timestep>
    <timestep time="65340"><vehicle id="1008.TA.92-1-N-j24-1.88.H" x="9.88268085" y="46.5084781" until="600" name="Punt Muragl, Talstation" fareZone="" fareSymbol="" startFare="" speed="20"/></timestep>
    <timestep time="65400"><vehicle id="1008.TA.92-1-N-j24-1.88.H" x="9.8926791" y="46.50160258" until="660" name="Pontresina, Godin" fareZone="" fareSymbol="" startFare="" speed="20"/></timestep>
    <timestep time="65460"><vehicle id="1008.TA.92-1-N-j24-1.88.H" x="9.89807798" y="46.49843658" until="720" name="Pontresina, Sportpavillon" fareZone="" fareSymbol="" startFare="" speed="20"/></timestep>
    <timestep time="65520"><vehicle id="1008.TA.92-1-N-j24-1.88.H" x="9.89980274" y="46.49552395" until="780" name="Pontresina, Schlossgarage" fareZone="" fareSymbol="" startFare="" speed="20"/></timestep>
    <timestep time="65640"><vehicle id="1008.TA.92-1-N-j24-1.88.H" x="9.90300074" y="46.49248129" until="900" name="Pontresina, Rondo" fareZone="" fareSymbol="" startFare="" speed="20"/></timestep>
    <timestep time="65760"><vehicle id="1008.TA.92-1-N-j24-1.88.H" x="9.90671079" y="46.48798501" until="1020" name="Pontresina, Post" fareZone="" fareSymbol="" startFare="" speed="20"/></timestep>
    <timestep time="66180"><vehicle id="1008.TA.92-1-N-j24-1.88.H" x="9.89608372" y="46.49103411" until="1440" name="Pontresina, Bahnhof" fareZone="" fareSymbol="" startFare="" speed="20"/></timestep>
    <timestep time="66420"><vehicle id="1008.TA.92-1-N-j24-1.88.H" x="9.88268085" y="46.5084781" until="1680" name="Punt Muragl, Talstation" fareZone="" fareSymbol="" startFare="" speed="20"/></timestep>
    <timestep time="66840"><vehicle id="1008.TA.92-1-N-j24-1.88.H" x="9.84528399" y="46.49767598" until="2100" name="St. Moritz, Bahnhof" fareZone="" fareSymbol="" startFare="" speed="20"/></timestep>
    <timestep time="66900"><vehicle id="1008.TA.92-1-N-j24-1.88.H" x="9.83937307" y="46.49718745" until="2160" name="St. Moritz, Klinik Gut" fareZone="" fareSymbol="" startFare="" speed="20"/></timestep>
    <timestep time="67020"><vehicle id="1008.TA.92-1-N-j24-1.88.H" x="9.83862747" y="46.49825107" until="2340" name="St. Moritz, Schulhausplatz" fareZone="" fareSymbol="" startFare="" speed="20"/></timestep>
    <timestep time="67020"><vehicle id="1008.TA.92-1-N-j24-1.88.H" x="9.83687576" y="46.49616709" until="2340" name="St. Moritz, Caspar Badrutt" fareZone="" fareSymbol="" startFare="" speed="20"/></timestep>
    <timestep time="67080"><vehicle id="1008.TA.92-1-N-j24-1.88.H" x="9.83483658" y="46.4915969" until="2400" name="St. Moritz Bad, Via Aruons" fareZone="" fareSymbol="" startFare="" speed="20"/></timestep>
    <timestep time="67140"><vehicle id="1008.TA.92-1-N-j24-1.88.H" x="9.83526777" y="46.48896841" until="2460" name="St. Moritz Bad, Via Salet" fareZone="" fareSymbol="" startFare="" speed="20"/></timestep>
    <timestep time="67200"><vehicle id="1008.TA.92-1-N-j24-1.88.H" x="9.83751356" y="46.48848598" until="2520" name="St. Moritz Bad, Kath. Kirche" fareZone="" fareSymbol="" startFare="" speed="20"/></timestep>
    <timestep time="67260"><vehicle id="1008.TA.92-1-N-j24-1.88.H" x="9.84019054" y="46.48667378" until="2580" name="St. Moritz Bad, Sonne" fareZone="" fareSymbol="" startFare="" speed="20"/></timestep>
    <timestep time="67320"><vehicle id="1008.TA.92-1-N-j24-1.88.H" x="9.83674101" y="46.4848677" until="2640" name="St. Moritz Bad, Hallenbad" fareZone="" fareSymbol="" startFare="" speed="20"/></timestep>
    <timestep time="67380"><vehicle id="1008.TA.92-1-N-j24-1.88.H" x="9.83409996" y="46.48380381" until="2760" name="St. Moritz Bad, Via San Gian" fareZone="" fareSymbol="" startFare="" speed="20"/></timestep>
    <timestep time="67380"><vehicle id="1008.TA.92-1-N-j24-1.88.H" x="9.8321057" y="46.48352547" until="2760" name="St. Moritz Bad, Signalbahn" fareZone="" fareSymbol="" startFare="" speed="20"/></timestep>
    <timestep time="67440"><vehicle id="1008.TA.92-1-N-j24-1.88.H" x="9.82370645" y="46.47886142" until="2820" name="St. Moritz Bad, Campingplatz" fareZone="" fareSymbol="" startFare="" speed="20"/></timestep>
    <timestep time="67740"><vehicle id="1008.TA.92-1-N-j24-1.88.H" x="9.79787091" y="46.4604921" until="3120" name="Silvaplana, Rundella Curtins" fareZone="" fareSymbol="" startFare="" speed="20"/></timestep>
    <timestep time="67800"><vehicle id="1008.TA.92-1-N-j24-1.88.H" x="9.80385369" y="46.45979284" until="3180" name="Surlej, Punt" fareZone="" fareSymbol="" startFare="" speed="20"/></timestep>
    <timestep time="67860"><vehicle id="1008.TA.92-1-N-j24-1.88.H" x="9.81113902" y="46.45897599" until="3240" name="Surlej, Foppas" fareZone="" fareSymbol="" startFare="" speed="20"/></timestep>
    <timestep time="127440"><vehicle id="1063.TA.92-1-N-j24-1.89.H" x="9.87303295" y="46.53375918" until="0" name="Samedan, Bahnhof" fareZone="" fareSymbol="" startFare="" speed="20"/></timestep>
    <timestep time="127500"><vehicle id="1063.TA.92-1-N-j24-1.89.H" x="9.87203582" y="46.53526702" until="120" name="Samedan, Post" fareZone="" fareSymbol="" startFare="" speed="20"/></timestep>
    <timestep time="127500"><vehicle id="1063.TA.92-1-N-j24-1.89.H" x="9.87104767" y="46.53456872" until="120" name="Samedan, Chesa Planta" fareZone="" fareSymbol="" startFare="" speed="20"/></timestep>
    <timestep time="127560"><vehicle id="1063.TA.92-1-N-j24-1.89.H" x="9.8693768" y="46.53303614" until="180" name="Samedan, Central" fareZone="" fareSymbol="" startFare="" speed="20"/></timestep>
    <timestep time="127620"><vehicle id="1063.TA.92-1-N-j24-1.89.H" x="9.87146089" y="46.53058269" until="240" name="Samedan, Golf" fareZone="" fareSymbol="" startFare="" speed="20"/></timestep>
    <timestep time="127680"><vehicle id="1063.TA.92-1-N-j24-1.89.H" x="9.8734282" y="46.53131812" until="300" name="Samedan, Porta Samedan" fareZone="" fareSymbol="" startFare="" speed="20"/></timestep>
    <timestep time="127980"><vehicle id="1063.TA.92-1-N-j24-1.89.H" x="9.88268085" y="46.5084781" until="600" name="Punt Muragl, Talstation" fareZone="" fareSymbol="" startFare="" speed="20"/></timestep>
    <timestep time="128040"><vehicle id="1063.TA.92-1-N-j24-1.89.H" x="9.8926791" y="46.50160258" until="660" name="Pontresina, Godin" fareZone="" fareSymbol="" startFare="" speed="20"/></timestep>
    <timestep time="128100"><vehicle id="1063.TA.92-1-N-j24-1.89.H" x="9.89807798" y="46.49843658" until="720" name="Pontresina, Sportpavillon" fareZone="" fareSymbol="" startFare="" speed="20"/></timestep>
    <timestep time="128160"><vehicle id="1063.TA.92-1-N-j24-1.89.H" x="9.89980274" y="46.49552395" until="780" name="Pontresina, Schlossgarage" fareZone="" fareSymbol="" startFare="" speed="20"/></timestep>
    <timestep time="128280"><vehicle id="1063.TA.92-1-N-j24-1.89.H" x="9.90300074" y="46.49248129" until="900" name="Pontresina, Rondo" fareZone="" fareSymbol="" startFare="" speed="20"/></timestep>
    <timestep time="128400"><vehicle id="1063.TA.92-1-N-j24-1.89.H" x="9.90671079" y="46.48798501" until="1020" name="Pontresina, Post" fareZone="" fareSymbol="" startFare="" speed="20"/></timestep>
    <timestep time="128820"><vehicle id="1063.TA.92-1-N-j24-1.89.H" x="9.89608372" y="46.49103411" until="1440" name="Pontresina, Bahnhof" fareZone="" fareSymbol="" startFare="" speed="20"/></timestep>
    <timestep time="129060"><vehicle id="1063.TA.92-1-N-j24-1.89.H" x="9.88268085" y="46.5084781" until="1680" name="Punt Muragl, Talstation" fareZone="" fareSymbol="" startFare="" speed="20"/></timestep>
    <timestep time="129480"><vehicle id="1063.TA.92-1-N-j24-1.89.H" x="9.84528399" y="46.49767598" until="2100" name="St. Moritz, Bahnhof" fareZone="" fareSymbol="" startFare="" speed="20"/></timestep>
    <timestep time="129540"><vehicle id="1063.TA.92-1-N-j24-1.89.H" x="9.83937307" y="46.49718745" until="2160" name="St. Moritz, Klinik Gut" fareZone="" fareSymbol="" startFare="" speed="20"/></timestep>
    <timestep time="129660"><vehicle id="1063.TA.92-1-N-j24-1.89.H" x="9.83862747" y="46.49825107" until="2340" name="St. Moritz, Schulhausplatz" fareZone="" fareSymbol="" startFare="" speed="20"/></timestep>
    <timestep time="129660"><vehicle id="1063.TA.92-1-N-j24-1.89.H" x="9.83687576" y="46.49616709" until="2340" name="St. Moritz, Caspar Badrutt" fareZone="" fareSymbol="" startFare="" speed="20"/></timestep>
    <timestep time="129720"><vehicle id="1063.TA.92-1-N-j24-1.89.H" x="9.83483658" y="46.4915969" until="2400" name="St. Moritz Bad, Via Aruons" fareZone="" fareSymbol="" startFare="" speed="20"/></timestep>
    <timestep time="129780"><vehicle id="1063.TA.92-1-N-j24-1.89.H" x="9.83526777" y="46.48896841" until="2460" name="St. Moritz Bad, Via Salet" fareZone="" fareSymbol="" startFare="" speed="20"/></timestep>
    <timestep time="129840"><vehicle id="1063.TA.92-1-N-j24-1.89.H" x="9.83751356" y="46.48848598" until="2520" name="St. Moritz Bad, Kath. Kirche" fareZone="" fareSymbol="" startFare="" speed="20"/></timestep>
    <timestep time="129900"><vehicle id="1063.TA.92-1-N-j24-1.89.H" x="9.84019054" y="46.48667378" until="2580" name="St. Moritz Bad, Sonne" fareZone="" fareSymbol="" startFare="" speed="20"/></timestep>
    <timestep time="129960"><vehicle id="1063.TA.92-1-N-j24-1.89.H" x="9.83674101" y="46.4848677" until="2640" name="St. Moritz Bad, Hallenbad" fareZone="" fareSymbol="" startFare="" speed="20"/></timestep>
    <timestep time="130020"><vehicle id="1063.TA.92-1-N-j24-1.89.H" x="9.83409996" y="46.48380381" until="2760" name="St. Moritz Bad, Via San Gian" fareZone="" fareSymbol="" startFare="" speed="20"/></timestep>
    <timestep time="130020"><vehicle id="1063.TA.92-1-N-j24-1.89.H" x="9.8321057" y="46.48352547" until="2760" name="St. Moritz Bad, Signalbahn" fareZone="" fareSymbol="" startFare="" speed="20"/></timestep>
    <timestep time="130080"><vehicle id="1063.TA.92-1-N-j24-1.89.H" x="9.82370645" y="46.47886142" until="2820" name="St. Moritz Bad, Campingplatz" fareZone="" fareSymbol="" startFare="" speed="20"/></timestep>
    <timestep time="130380"><vehicle id="1063.TA.92-1-N-j24-1.89.H" x="9.79787091" y="46.4604921" until="3120" name="Silvaplana, Rundella Curtins" fareZone="" fareSymbol="" startFare="" speed="20"/></timestep>
    <timestep time="130440"><vehicle id="1063.TA.92-1-N-j24-1.89.H" x="9.80385369" y="46.45979284" until="3180" name="Surlej, Punt" fareZone="" fareSymbol="" startFare="" speed="20"/></timestep>
    <timestep time="130500"><vehicle id="1063.TA.92-1-N-j24-1.89.H" x="9.81113902" y="46.45897599" until="3240" name="Surlej, Foppas" fareZone="" fareSymbol="" startFare="" speed="20"/></timestep>
    <timestep time="130680"><vehicle id="1063.TA.92-1-N-j24-1.89.H" x="9.81378007" y="46.45504012" until="3420" name="Surlej, Corvatschbahn" fareZone="" fareSymbol="" startFare="" speed="20"/></timestep>
    <timestep time="201360"><vehicle id="154.TA.92-1-N-j24-1.77.H" x="9.84528399" y="46.49767598" until="0" name="St. Moritz, Bahnhof" fareZone="" fareSymbol="" startFare="" speed="20"/></timestep>
    <timestep time="201420"><vehicle id="154.TA.92-1-N-j24-1.77.H" x="9.83937307" y="46.49718745" until="60" name="St. Moritz, Klinik Gut" fareZone="" fareSymbol="" startFare="" speed="20"/></timestep>
    <timestep time="201540"><vehicle id="154.TA.92-1-N-j24-1.77.H" x="9.83862747" y="46.49825107" until="240" name="St. Moritz, Schulhausplatz" fareZone="" fareSymbol="" startFare="" speed="20"/></timestep>
    <timestep time="201540"><vehicle id="154.TA.92-1-N-j24-1.77.H" x="9.83687576" y="46.49616709" until="240" name="St. Moritz, Caspar Badrutt" fareZone="" fareSymbol="" startFare="" speed="20"/></timestep>
    <timestep time="201600"><vehicle id="154.TA.92-1-N-j24-1.77.H" x="9.83483658" y="46.4915969" until="300" name="St. Moritz Bad, Via Aruons" fareZone="" fareSymbol="" startFare="" speed="20"/></timestep>
    <timestep time="201660"><vehicle id="154.TA.92-1-N-j24-1.77.H" x="9.83526777" y="46.48896841" until="360" name="St. Moritz Bad, Via Salet" fareZone="" fareSymbol="" startFare="" speed="20"/></timestep>
    <timestep time="201720"><vehicle id="154.TA.92-1-N-j24-1.77.H" x="9.83751356" y="46.48848598" until="420" name="St. Moritz Bad, Kath. Kirche" fareZone="" fareSymbol="" startFare="" speed="20"/></timestep>
    <timestep time="201780"><vehicle id="154.TA.92-1-N-j24-1.77.H" x="9.84019054" y="46.48667378" until="480" name="St. Moritz Bad, Sonne" fareZone="" fareSymbol="" startFare="" speed="20"/></timestep>
    <timestep time="201840"><vehicle id="154.TA.92-1-N-j24-1.77.H" x="9.83674101" y="46.4848677" until="540" name="St. Moritz Bad, Hallenbad" fareZone="" fareSymbol="" startFare="" speed="20"/></timestep>
    <timestep time="201900"><vehicle id="154.TA.92-1-N-j24-1.77.H" x="9.83409996" y="46.48380381" until="600" name="St. Moritz Bad, Via San Gian" fareZone="" fareSymbol="" startFare="" speed="20"/></timestep>
    <timestep time="273060"><vehicle id="1679.TA.92-1-N-j24-1.90.R" x="9.83409996" y="46.48380381" until="0" name="St. Moritz Bad, Via San Gian" fareZone="" fareSymbol="" startFare="" speed="20"/></timestep>
    <timestep time="273120"><vehicle id="1679.TA.92-1-N-j24-1.90.R" x="9.83716322" y="46.48494811" until="60" name="St. Moritz Bad, Hallenbad" fareZone="" fareSymbol="" startFare="" speed="20"/></timestep>
    <timestep time="273240"><vehicle id="1679.TA.92-1-N-j24-1.90.R" x="9.84019054" y="46.48667378" until="180" name="St. Moritz Bad, Sonne" fareZone="" fareSymbol="" startFare="" speed="20"/></timestep>
    <timestep time="273300"><vehicle id="1679.TA.92-1-N-j24-1.90.R" x="9.83751356" y="46.48848598" until="240" name="St. Moritz Bad, Kath. Kirche" fareZone="" fareSymbol="" startFare="" speed="20"/></timestep>
    <timestep time="273360"><vehicle id="1679.TA.92-1-N-j24-1.90.R" x="9.83526777" y="46.48896841" until="300" name="St. Moritz Bad, Via Salet" fareZone="" fareSymbol="" startFare="" speed="20"/></timestep>
    <timestep time="273420"><vehicle id="1679.TA.92-1-N-j24-1.90.R" x="9.83483658" y="46.4915969" until="360" name="St. Moritz Bad, Via Aruons" fareZone="" fareSymbol="" startFare="" speed="20"/></timestep>
    <timestep time="273600"><vehicle id="1679.TA.92-1-N-j24-1.90.R" x="9.8390407" y="46.49836238" until="540" name="St. Moritz, Schulhausplatz" fareZone="" fareSymbol="" startFare="" speed="20"/></timestep>
    <timestep time="273660"><vehicle id="1679.TA.92-1-N-j24-1.90.R" x="9.83937307" y="46.49718745" until="600" name="St. Moritz, Klinik Gut" fareZone="" fareSymbol="" startFare="" speed="20"/></timestep>
    <timestep time="273780"><vehicle id="1679.TA.92-1-N-j24-1.90.R" x="9.84528399" y="46.49767598" until="720" name="St. Moritz, Bahnhof" fareZone="" fareSymbol="" startFare="" speed="20"/></timestep>
    <timestep time="346200"><vehicle id="2056.TA.92-1-N-j24-1.14.R" x="9.90658502" y="46.48826333" until="0" name="Pontresina, Post" fareZone="" fareSymbol="" startFare="" speed="20"/></timestep>
    <timestep time="346260"><vehicle id="2056.TA.92-1-N-j24-1.14.R" x="9.90283905" y="46.49186902" until="60" name="Pontresina, Punt Ota Sur" fareZone="" fareSymbol="" startFare="" speed="20"/></timestep>
    <timestep time="346380"><vehicle id="2056.TA.92-1-N-j24-1.14.R" x="9.89980274" y="46.49552395" until="180" name="Pontresina, Schlossgarage" fareZone="" fareSymbol="" startFare="" speed="20"/></timestep>
    <timestep time="346440"><vehicle id="2056.TA.92-1-N-j24-1.14.R" x="9.89807798" y="46.49843658" until="240" name="Pontresina, Sportpavillon" fareZone="" fareSymbol="" startFare="" speed="20"/></timestep>
    <timestep time="346500"><vehicle id="2056.TA.92-1-N-j24-1.14.R" x="9.8926791" y="46.50160258" until="300" name="Pontresina, Godin" fareZone="" fareSymbol="" startFare="" speed="20"/></timestep>
    <timestep time="346680"><vehicle id="2056.TA.92-1-N-j24-1.14.R" x="9.88268085" y="46.5084781" until="480" name="Punt Muragl, Talstation" fareZone="" fareSymbol="" startFare="" speed="20"/></timestep>
    <timestep time="346860"><vehicle id="2056.TA.92-1-N-j24-1.14.R" x="9.8734282" y="46.53131812" until="660" name="Samedan, Porta Samedan" fareZone="" fareSymbol="" startFare="" speed="20"/></timestep>
    <timestep time="346920"><vehicle id="2056.TA.92-1-N-j24-1.14.R" x="9.87146089" y="46.53058269" until="720" name="Samedan, Golf" fareZone="" fareSymbol="" startFare="" speed="20"/></timestep>
    <timestep time="347160"><vehicle id="2056.TA.92-1-N-j24-1.14.R" x="9.87303295" y="46.53375918" until="960" name="Samedan, Bahnhof" fareZone="" fareSymbol="" startFare="" speed="20"/></timestep>
    <timestep time="369900"><vehicle id="2351.TA.92-1-N-j24-1.91.R" x="9.83409996" y="46.48380381" until="0" name="St. Moritz Bad, Via San Gian" fareZone="" fareSymbol="" startFare="" speed="20"/></timestep>
    <timestep time="369960"><vehicle id="2351.TA.92-1-N-j24-1.91.R" x="9.83716322" y="46.48494811" until="60" name="St. Moritz Bad, Hallenbad" fareZone="" fareSymbol="" startFare="" speed="20"/></timestep>
    <timestep time="370080"><vehicle id="2351.TA.92-1-N-j24-1.91.R" x="9.84019054" y="46.48667378" until="180" name="St. Moritz Bad, Sonne" fareZone="" fareSymbol="" startFare="" speed="20"/></timestep>
    <timestep time="370140"><vehicle id="2351.TA.92-1-N-j24-1.91.R" x="9.83751356" y="46.48848598" until="240" name="St. Moritz Bad, Kath. Kirche" fareZone="" fareSymbol="" startFare="" speed="20"/></timestep>
    <timestep time="370200"><vehicle id="2351.TA.92-1-N-j24-1.91.R" x="9.83526777" y="46.48896841" until="300" name="St. Moritz Bad, Via Salet" fareZone="" fareSymbol="" startFare="" speed="20"/></timestep>
    <timestep time="370260"><vehicle id="2351.TA.92-1-N-j24-1.91.R" x="9.83483658" y="46.4915969" until="360" name="St. Moritz Bad, Via Aruons" fareZone="" fareSymbol="" startFare="" speed="20"/></timestep>
    <timestep time="370440"><vehicle id="2351.TA.92-1-N-j24-1.91.R" x="9.8390407" y="46.49836238" until="540" name="St. Moritz, Schulhausplatz" fareZone="" fareSymbol="" startFare="" speed="20"/></timestep>
    <timestep time="370500"><vehicle id="2351.TA.92-1-N-j24-1.91.R" x="9.83937307" y="46.49718745" until="600" name="St. Moritz, Klinik Gut" fareZone="" fareSymbol="" startFare="" speed="20"/></timestep>
    <timestep time="370620"><vehicle id="2351.TA.92-1-N-j24-1.91.R" x="9.84528399" y="46.49767598" until="780" name="St. Moritz, Bahnhof" fareZone="" fareSymbol="" startFare="" speed="20"/></timestep>
    <timestep time="370860"><vehicle id="2351.TA.92-1-N-j24-1.91.R" x="9.88268085" y="46.5084781" until="1020" name="Punt Muragl, Talstation" fareZone="" fareSymbol="" startFare="" speed="20"/></timestep>
    <timestep time="371220"><vehicle id="2351.TA.92-1-N-j24-1.91.R" x="9.89608372" y="46.49103411" until="1380" name="Pontresina, Bahnhof" fareZone="" fareSymbol="" startFare="" speed="20"/></timestep>
    <timestep time="397260"><vehicle id="2386.TA.92-1-N-j24-1.93.R" x="9.81044732" y="46.47742007" until="0" name="Champfèr, Guardalej" fareZone="" fareSymbol="" startFare="" speed="20"/></timestep>
    <timestep time="397380"><vehicle id="2386.TA.92-1-N-j24-1.93.R" x="9.8131243" y="46.4781191" until="120" name="Champfèr, Schulhaus" fareZone="" fareSymbol="" startFare="" speed="20"/></timestep>
    <timestep time="397440"><vehicle id="2386.TA.92-1-N-j24-1.93.R" x="9.82370645" y="46.47886142" until="180" name="St. Moritz Bad, Campingplatz" fareZone="" fareSymbol="" startFare="" speed="20"/></timestep>
    <timestep time="397560"><vehicle id="2386.TA.92-1-N-j24-1.93.R" x="9.8321057" y="46.48352547" until="300" name="St. Moritz Bad, Signalbahn" fareZone="" fareSymbol="" startFare="" speed="20"/></timestep>
    <timestep time="397620"><vehicle id="2386.TA.92-1-N-j24-1.93.R" x="9.83409996" y="46.48380381" until="360" name="St. Moritz Bad, Via San Gian" fareZone="" fareSymbol="" startFare="" speed="20"/></timestep>
    <timestep time="397680"><vehicle id="2386.TA.92-1-N-j24-1.93.R" x="9.83716322" y="46.48494811" until="420" name="St. Moritz Bad, Hallenbad" fareZone="" fareSymbol="" startFare="" speed="20"/></timestep>
    <timestep time="397800"><vehicle id="2386.TA.92-1-N-j24-1.93.R" x="9.84019054" y="46.48667378" until="540" name="St. Moritz Bad, Sonne" fareZone="" fareSymbol="" startFare="" speed="20"/></timestep>
    <timestep time="397860"><vehicle id="2386.TA.92-1-N-j24-1.93.R" x="9.83751356" y="46.48848598" until="600" name="St. Moritz Bad, Kath. Kirche" fareZone="" fareSymbol="" startFare="" speed="20"/></timestep>
    <timestep time="397920"><vehicle id="2386.TA.92-1-N-j24-1.93.R" x="9.83526777" y="46.48896841" until="660" name="St. Moritz Bad, Via Salet" fareZone="" fareSymbol="" startFare="" speed="20"/></timestep>
    <timestep time="397980"><vehicle id="2386.TA.92-1-N-j24-1.93.R" x="9.83483658" y="46.4915969" until="720" name="St. Moritz Bad, Via Aruons" fareZone="" fareSymbol="" startFare="" speed="20"/></timestep>
    <timestep time="398160"><vehicle id="2386.TA.92-1-N-j24-1.93.R" x="9.8390407" y="46.49836238" until="900" name="St. Moritz, Schulhausplatz" fareZone="" fareSymbol="" startFare="" speed="20"/></timestep>
    <timestep time="398220"><vehicle id="2386.TA.92-1-N-j24-1.93.R" x="9.83937307" y="46.49718745" until="960" name="St. Moritz, Klinik Gut" fareZone="" fareSymbol="" startFare="" speed="20"/></timestep>
    <timestep time="398340"><vehicle id="2386.TA.92-1-N-j24-1.93.R" x="9.84528399" y="46.49767598" until="1080" name="St. Moritz, Bahnhof" fareZone="" fareSymbol="" startFare="" speed="20"/></timestep>
    <timestep time="432480"><vehicle id="2467.TA.92-1-N-j24-1.95.R" x="9.81378007" y="46.45504012" until="0" name="Surlej, Corvatschbahn" fareZone="" fareSymbol="" startFare="" speed="20"/></timestep>
    <timestep time="432540"><vehicle id="2467.TA.92-1-N-j24-1.95.R" x="9.81113902" y="46.45897599" until="60" name="Surlej, Foppas" fareZone="" fareSymbol="" startFare="" speed="20"/></timestep>
    <timestep time="432600"><vehicle id="2467.TA.92-1-N-j24-1.95.R" x="9.80385369" y="46.45979284" until="120" name="Surlej, Punt" fareZone="" fareSymbol="" startFare="" speed="20"/></timestep>
    <timestep time="432720"><vehicle id="2467.TA.92-1-N-j24-1.95.R" x="9.79811345" y="46.46047972" until="240" name="Silvaplana, Rundella Curtins" fareZone="" fareSymbol="" startFare="" speed="20"/></timestep>
    <timestep time="432900"><vehicle id="2467.TA.92-1-N-j24-1.95.R" x="9.82370645" y="46.47886142" until="420" name="St. Moritz Bad, Campingplatz" fareZone="" fareSymbol="" startFare="" speed="20"/></timestep>
    <timestep time="433020"><vehicle id="2467.TA.92-1-N-j24-1.95.R" x="9.8321057" y="46.48352547" until="540" name="St. Moritz Bad, Signalbahn" fareZone="" fareSymbol="" startFare="" speed="20"/></timestep>
    <timestep time="433080"><vehicle id="2467.TA.92-1-N-j24-1.95.R" x="9.83409996" y="46.48380381" until="600" name="St. Moritz Bad, Via San Gian" fareZone="" fareSymbol="" startFare="" speed="20"/></timestep>
    <timestep time="433140"><vehicle id="2467.TA.92-1-N-j24-1.95.R" x="9.83716322" y="46.48494811" until="660" name="St. Moritz Bad, Hallenbad" fareZone="" fareSymbol="" startFare="" speed="20"/></timestep>
    <timestep time="433260"><vehicle id="2467.TA.92-1-N-j24-1.95.R" x="9.84019054" y="46.48667378" until="780" name="St. Moritz Bad, Sonne" fareZone="" fareSymbol="" startFare="" speed="20"/></timestep>
    <timestep time="433320"><vehicle id="2467.TA.92-1-N-j24-1.95.R" x="9.83751356" y="46.48848598" until="840" name="St. Moritz Bad, Kath. Kirche" fareZone="" fareSymbol="" startFare="" speed="20"/></timestep>
    <timestep time="433380"><vehicle id="2467.TA.92-1-N-j24-1.95.R" x="9.83526777" y="46.48896841" until="900" name="St. Moritz Bad, Via Salet" fareZone="" fareSymbol="" startFare="" speed="20"/></timestep>
    <timestep time="433440"><vehicle id="2467.TA.92-1-N-j24-1.95.R" x="9.83483658" y="46.4915969" until="960" name="St. Moritz Bad, Via Aruons" fareZone="" fareSymbol="" startFare="" speed="20"/></timestep>
    <timestep time="433620"><vehicle id="2467.TA.92-1-N-j24-1.95.R" x="9.8390407" y="46.49836238" until="1140" name="St. Moritz, Schulhausplatz" fareZone="" fareSymbol="" startFare="" speed="20"/></timestep>
    <timestep time="433680"><vehicle id="2467.TA.92-1-N-j24-1.95.R" x="9.83937307" y="46.49718745" until="1200" name="St. Moritz, Klinik Gut" fareZone="" fareSymbol="" startFare="" speed="20"/></timestep>
    <timestep time="433800"><vehicle id="2467.TA.92-1-N-j24-1.95.R" x="9.84528399" y="46.49767598" until="1320" name="St. Moritz, Bahnhof" fareZone="" fareSymbol="" startFare="" speed="20"/></timestep>
    <timestep time="462600"><vehicle id="2689.TA.92-1-N-j24-1.100.R" x="9.81113902" y="46.45897599" until="0" name="Surlej, Foppas" fareZone="" fareSymbol="" startFare="" speed="20"/></timestep>
    <timestep time="462660"><vehicle id="2689.TA.92-1-N-j24-1.100.R" x="9.80385369" y="46.45979284" until="60" name="Surlej, Punt" fareZone="" fareSymbol="" startFare="" speed="20"/></timestep>
    <timestep time="462780"><vehicle id="2689.TA.92-1-N-j24-1.100.R" x="9.79811345" y="46.46047972" until="180" name="Silvaplana, Rundella Curtins" fareZone="" fareSymbol="" startFare="" speed="20"/></timestep>
    <timestep time="462960"><vehicle id="2689.TA.92-1-N-j24-1.100.R" x="9.82370645" y="46.47886142" until="360" name="St. Moritz Bad, Campingplatz" fareZone="" fareSymbol="" startFare="" speed="20"/></timestep>
    <timestep time="463080"><vehicle id="2689.TA.92-1-N-j24-1.100.R" x="9.8321057" y="46.48352547" until="480" name="St. Moritz Bad, Signalbahn" fareZone="" fareSymbol="" startFare="" speed="20"/></timestep>
    <timestep time="463140"><vehicle id="2689.TA.92-1-N-j24-1.100.R" x="9.83409996" y="46.48380381" until="540" name="St. Moritz Bad, Via San Gian" fareZone="" fareSymbol="" startFare="" speed="20"/></timestep>
    <timestep time="463200"><vehicle id="2689.TA.92-1-N-j24-1.100.R" x="9.83716322" y="46.48494811" until="600" name="St. Moritz Bad, Hallenbad" fareZone="" fareSymbol="" startFare="" speed="20"/></timestep>
    <timestep time="463320"><vehicle id="2689.TA.92-1-N-j24-1.100.R" x="9.84019054" y="46.48667378" until="720" name="St. Moritz Bad, Sonne" fareZone="" fareSymbol="" startFare="" speed="20"/></timestep>
    <timestep time="463380"><vehicle id="2689.TA.92-1-N-j24-1.100.R" x="9.83751356" y="46.48848598" until="780" name="St. Moritz Bad, Kath. Kirche" fareZone="" fareSymbol="" startFare="" speed="20"/></timestep>
    <timestep time="463440"><vehicle id="2689.TA.92-1-N-j24-1.100.R" x="9.83526777" y="46.48896841" until="840" name="St. Moritz Bad, Via Salet" fareZone="" fareSymbol="" startFare="" speed="20"/></timestep>
    <timestep time="463500"><vehicle id="2689.TA.92-1-N-j24-1.100.R" x="9.83483658" y="46.4915969" until="900" name="St. Moritz Bad, Via Aruons" fareZone="" fareSymbol="" startFare="" speed="20"/></timestep>
    <timestep time="463680"><vehicle id="2689.TA.92-1-N-j24-1.100.R" x="9.8390407" y="46.49836238" until="1080" name="St. Moritz, Schulhausplatz" fareZone="" fareSymbol="" startFare="" speed="20"/></timestep>
    <timestep time="463740"><vehicle id="2689.TA.92-1-N-j24-1.100.R" x="9.83937307" y="46.49718745" until="1140" name="St. Moritz, Klinik Gut" fareZone="" fareSymbol="" startFare="" speed="20"/></timestep>
    <timestep time="463860"><vehicle id="2689.TA.92-1-N-j24-1.100.R" x="9.84528399" y="46.49767598" until="1320" name="St. Moritz, Bahnhof" fareZone="" fareSymbol="" startFare="" speed="20"/></timestep>
    <timestep time="464100"><vehicle id="2689.TA.92-1-N-j24-1.100.R" x="9.88268085" y="46.5084781" until="1560" name="Punt Muragl, Talstation" fareZone="" fareSymbol="" startFare="" speed="20"/></timestep>
    <timestep time="464460"><vehicle id="2689.TA.92-1-N-j24-1.100.R" x="9.89608372" y="46.49103411" until="1920" name="Pontresina, Bahnhof" fareZone="" fareSymbol="" startFare="" speed="20"/></timestep>
    <timestep time="464700"><vehicle id="2689.TA.92-1-N-j24-1.100.R" x="9.90658502" y="46.48826333" until="2220" name="Pontresina, Post" fareZone="" fareSymbol="" startFare="" speed="20"/></timestep>
    <timestep time="464760"><vehicle id="2689.TA.92-1-N-j24-1.100.R" x="9.90283905" y="46.49186902" until="2280" name="Pontresina, Punt Ota Sur" fareZone="" fareSymbol="" startFare="" speed="20"/></timestep>