<?xml version="1.0" encoding="UTF-8"?>

<!-- generated by Eclipse SUMO sumo Version 1.12.0
<configuration xmlns:xsi="http://www.w3.org/2001/XMLSchema-instance" xsi:noNamespaceSchemaLocation="http://sumo.dlr.de/xsd/sumoConfiguration.xsd">

    <input>
        <net-file value="\\FLOS-NG-PC\sumo\maloja\simple.net.xml"/>
        <route-files value="\\FLOS-NG-PC\sumo\maloja\09_daytrips\persontrips_maloja_daytrips_resolved_offseason_taxi.rou.xml,\\FLOS-NG-PC\sumo\maloja\11_hotel\persontrips_maloja_hotel_resolved_offseason_taxi.rou.xml,\\FLOS-NG-PC\sumo\maloja\12_non_hotel\persontrips_maloja_non_hotel_resolved_offseason_taxi.rou.xml,\\FLOS-NG-PC\sumo\maloja\13_private\persontrips_maloja_private_resolved_offseason_taxi.rou.xml"/>
        <additional-files value="\\FLOS-NG-PC\sumo\maloja\03_bus\virtualstop.add.xml,\\FLOS-NG-PC\sumo\maloja\03_bus\03_November\gtfs_pt_stops.add.xml,drt_fleet.xml,drt_parking.add.xml,drt_parking_rerouter.add.xml"/>
    </input>

    <output>
        <tripinfo-output value="tripinfos_drt.xml"/>
        <tripinfo-output.write-unfinished value="true"/>
        <stop-output value="stopinfos_drt.xml"/>
        <statistic-output value="stats_drt.xml"/>
    </output>

    <time>
        <begin value="20520"/>
        <end value="77400"/>
    </time>

    <routing>
        <routing-algorithm value="CH"/>
        <persontrip.transfer.taxi-walk value="ptStops"/>
        <persontrip.transfer.walk-taxi value="ptStops"/>
    </routing>

    <report>
        <verbose value="true"/>
        <log value="simulation.log.txt"/>
        <error-log value="sumo_error.log"/>
        <duration-log.statistics value="true"/>
    </report>

    <taxi_device>
        <device.taxi.dispatch-algorithm value="traci"/>
    </taxi_device>

    <traci_server>
        <remote-port value="57346"/>
    </traci_server>

</configuration>
-->

<tripinfos xmlns:xsi="http://www.w3.org/2001/XMLSchema-instance" xsi:noNamespaceSchemaLocation="http://sumo.dlr.de/xsd/tripinfo_file.xsd">
    <personinfo id="d92" depart="29122.82" type="DEFAULT_PEDTYPE">
        <walk depart="29123.00" departPos="10.91" arrival="29127.00" arrivalPos="15.00" duration="4.00" routeLength="4.09" timeLoss="0.96" maxSpeed="1.34"/>
        <ride waitingTime="42.00" vehicle="taxi90" depart="29169.00" arrival="29568.00" arrivalPos="13.24" duration="399.00" routeLength="6663.45" timeLoss="43.52"/>
        <walk depart="29568.00" departPos="13.24" arrival="29609.00" arrivalPos="0.67" duration="41.00" routeLength="47.62" timeLoss="5.58" maxSpeed="1.34"/>
    </personinfo>
    <personinfo id="d89" depart="29197.95" type="DEFAULT_PEDTYPE">
        <walk depart="29198.00" departPos="4.83" arrival="29206.00" arrivalPos="15.00" duration="8.00" routeLength="10.17" timeLoss="1.50" maxSpeed="1.56"/>
        <ride waitingTime="52.00" vehicle="taxi72" depart="29258.00" arrival="29683.00" arrivalPos="524.38" duration="425.00" routeLength="7115.34" timeLoss="48.57"/>
        <walk depart="29683.00" departPos="524.38" arrival="29708.00" arrivalPos="23.98" duration="25.00" routeLength="38.11" timeLoss="0.62" maxSpeed="1.56"/>
    </personinfo>
    <personinfo id="tn85" depart="28889.60" type="DEFAULT_PEDTYPE">
        <walk depart="28890.00" departPos="4.46" arrival="29266.00" arrivalPos="553.86" duration="376.00" routeLength="529.27" timeLoss="42.33" maxSpeed="1.59"/>
        <ride waitingTime="344.00" vehicle="taxi28" depart="29610.00" arrival="29822.00" arrivalPos="25.00" duration="212.00" routeLength="3011.61" timeLoss="32.77"/>
        <walk depart="29822.00" departPos="25.00" arrival="29823.00" arrivalPos="25.50" duration="1.00" routeLength="0.50" timeLoss="0.69" maxSpeed="1.59"/>
    </personinfo>
    <personinfo id="tp122" depart="28979.52" type="DEFAULT_PEDTYPE">
        <walk depart="28980.00" departPos="0.56" arrival="28995.00" arrivalPos="18.71" duration="15.00" routeLength="18.15" timeLoss="1.63" maxSpeed="1.36"/>
        <ride waitingTime="56.00" vehicle="taxi28" depart="29051.00" arrival="29409.00" arrivalPos="45.55" duration="358.00" routeLength="3978.00" timeLoss="35.54"/>
        <walk depart="29409.00" departPos="45.55" arrival="29844.00" arrivalPos="105.14" duration="435.00" routeLength="553.33" timeLoss="27.41" maxSpeed="1.36"/>
    </personinfo>
    <personinfo id="th83" depart="29197.95" type="DEFAULT_PEDTYPE">
        <walk depart="29198.00" departPos="40.87" arrival="29349.00" arrivalPos="23.94" duration="151.00" routeLength="223.57" timeLoss="0.94" maxSpeed="1.49"/>
        <ride waitingTime="69.00" vehicle="taxi11" depart="29418.00" arrival="29878.00" arrivalPos="15.00" duration="460.00" routeLength="8604.64" timeLoss="51.11"/>
        <walk depart="29878.00" departPos="15.00" arrival="29891.00" arrivalPos="1.99" duration="13.00" routeLength="20.20" timeLoss="-0.56" maxSpeed="1.49"/>
    </personinfo>
    <personinfo id="tp83" depart="29197.95" type="DEFAULT_PEDTYPE">
        <walk depart="29198.00" departPos="99.19" arrival="29303.00" arrivalPos="23.94" duration="105.00" routeLength="165.26" timeLoss="-6.74" maxSpeed="1.48"/>
        <ride waitingTime="73.00" vehicle="taxi11" depart="29376.00" arrival="29878.00" arrivalPos="15.00" duration="502.00" routeLength="8976.22" timeLoss="64.48"/>
        <walk depart="29878.00" departPos="15.00" arrival="29892.00" arrivalPos="1.99" duration="14.00" routeLength="20.20" timeLoss="0.34" maxSpeed="1.48"/>
    </personinfo>
    <personinfo id="d128" depart="28979.52" type="DEFAULT_PEDTYPE">
        <walk depart="28980.00" departPos="19.31" arrival="28987.00" arrivalPos="10.00" duration="7.00" routeLength="9.31" timeLoss="1.14" maxSpeed="1.59"/>
        <ride waitingTime="398.00" vehicle="taxi82" depart="29385.00" arrival="29568.00" arrivalPos="45.55" duration="183.00" routeLength="2626.38" timeLoss="25.64"/>
        <walk depart="29568.00" departPos="45.55" arrival="29943.00" arrivalPos="105.14" duration="375.00" routeLength="553.33" timeLoss="26.71" maxSpeed="1.59"/>
    </personinfo>
    <personinfo id="d56" depart="28921.78" type="DEFAULT_PEDTYPE">
        <walk depart="28922.00" departPos="0.38" arrival="28936.00" arrivalPos="15.00" duration="14.00" routeLength="14.62" timeLoss="1.77" maxSpeed="1.20"/>
        <ride waitingTime="54.00" vehicle="taxi81" depart="28990.00" arrival="29582.00" arrivalPos="15.00" duration="592.00" routeLength="10570.68" timeLoss="65.50"/>
        <walk depart="29582.00" departPos="15.00" arrival="29945.00" arrivalPos="62.06" duration="363.00" routeLength="452.97" timeLoss="-15.87" maxSpeed="1.20"/>
    </personinfo>
    <personinfo id="th122" depart="28979.52" type="DEFAULT_PEDTYPE">
        <walk depart="28980.00" departPos="14.78" arrival="28984.00" arrivalPos="18.71" duration="4.00" routeLength="3.93" timeLoss="1.02" maxSpeed="1.32"/>
        <ride waitingTime="32.00" vehicle="taxi82" depart="29016.00" arrival="29568.00" arrivalPos="45.55" duration="552.00" routeLength="5699.35" timeLoss="73.08"/>
        <walk depart="29568.00" departPos="45.55" arrival="30017.00" arrivalPos="105.14" duration="449.00" routeLength="553.33" timeLoss="29.07" maxSpeed="1.32"/>
    </personinfo>
    <personinfo id="tn81" depart="29197.95" type="DEFAULT_PEDTYPE">
        <walk depart="29198.00" departPos="6.21" arrival="29379.00" arrivalPos="23.94" duration="181.00" routeLength="258.23" timeLoss="1.27" maxSpeed="1.44"/>
        <ride waitingTime="527.00" vehicle="taxi90" depart="29906.00" arrival="30040.00" arrivalPos="25.00" duration="134.00" routeLength="1699.73" timeLoss="20.58"/>
        <walk depart="30040.00" departPos="25.00" arrival="30150.00" arrivalPos="0.24" duration="110.00" routeLength="143.26" timeLoss="10.29" maxSpeed="1.44"/>
    </personinfo>
    <personinfo id="d145" depart="30205.95" type="DEFAULT_PEDTYPE">
        <walk depart="30206.00" departPos="26.61" arrival="30216.00" arrivalPos="15.00" duration="10.00" routeLength="11.61" timeLoss="1.92" maxSpeed="1.44"/>
        <ride waitingTime="36.00" vehicle="taxi36" depart="30252.00" arrival="30390.00" arrivalPos="53.58" duration="138.00" routeLength="1640.39" timeLoss="22.40"/>
        <walk depart="30390.00" departPos="53.58" arrival="30476.00" arrivalPos="18.64" duration="86.00" routeLength="43.59" timeLoss="55.68" maxSpeed="1.44"/>
    </personinfo>
    <personinfo id="d136" depart="29903.27" type="DEFAULT_PEDTYPE">
        <walk depart="29904.00" departPos="25.65" arrival="29914.00" arrivalPos="15.00" duration="10.00" routeLength="10.65" timeLoss="1.47" maxSpeed="1.25"/>
        <ride waitingTime="187.00" vehicle="taxi90" depart="30101.00" arrival="30374.00" arrivalPos="25.48" duration="273.00" routeLength="3577.61" timeLoss="43.08"/>
        <walk depart="30374.00" departPos="25.48" arrival="30634.00" arrivalPos="1.56" duration="260.00" routeLength="307.54" timeLoss="13.62" maxSpeed="1.25"/>
    </personinfo>
    <personinfo id="th129" depart="29903.27" type="DEFAULT_PEDTYPE">
        <walk depart="29904.00" departPos="0.29" arrival="30295.00" arrivalPos="184.55" duration="391.00" routeLength="436.73" timeLoss="40.40" maxSpeed="1.25"/>
        <ride waitingTime="328.00" vehicle="taxi36" depart="30623.00" arrival="30808.00" arrivalPos="25.00" duration="185.00" routeLength="2638.37" timeLoss="27.30"/>
        <walk depart="30808.00" departPos="25.00" arrival="30830.00" arrivalPos="1.24" duration="22.00" routeLength="23.76" timeLoss="2.93" maxSpeed="1.25"/>
    </personinfo>
    <personinfo id="tp129" depart="29903.27" type="DEFAULT_PEDTYPE">
        <walk depart="29904.00" departPos="17.93" arrival="30366.00" arrivalPos="184.55" duration="462.00" routeLength="454.37" timeLoss="48.88" maxSpeed="1.10"/>
        <ride waitingTime="257.00" vehicle="taxi36" depart="30623.00" arrival="30808.00" arrivalPos="25.00" duration="185.00" routeLength="2638.37" timeLoss="27.30"/>
        <walk depart="30808.00" departPos="25.00" arrival="30833.00" arrivalPos="1.24" duration="25.00" routeLength="23.76" timeLoss="3.40" maxSpeed="1.10"/>
    </personinfo>
    <personinfo id="d66" depart="30056.12" type="DEFAULT_PEDTYPE">
        <walk depart="30057.00" departPos="26.56" arrival="30069.00" arrivalPos="15.00" duration="12.00" routeLength="11.56" timeLoss="1.91" maxSpeed="1.14"/>
        <ride waitingTime="59.00" vehicle="taxi90" depart="30128.00" arrival="30907.00" arrivalPos="34.99" duration="779.00" routeLength="11755.52" timeLoss="87.41"/>
        <walk depart="30907.00" departPos="34.99" arrival="30954.00" arrivalPos="14.16" duration="47.00" routeLength="52.37" timeLoss="1.26" maxSpeed="1.14"/>
    </personinfo>
    <personinfo id="th138" depart="30205.95" type="DEFAULT_PEDTYPE">
        <walk depart="30206.00" departPos="0.32" arrival="30212.00" arrivalPos="5.29" duration="6.00" routeLength="25.53" timeLoss="-16.56" maxSpeed="1.13"/>
        <ride waitingTime="520.00" vehicle="taxi80" depart="30732.00" arrival="30995.00" arrivalPos="20.00" duration="263.00" routeLength="4209.95" timeLoss="36.98"/>
        <walk depart="30995.00" departPos="20.00" arrival="30996.00" arrivalPos="20.38" duration="1.00" routeLength="0.38" timeLoss="0.66" maxSpeed="1.13"/>
    </personinfo>
    <personinfo id="tp138" depart="30205.95" type="DEFAULT_PEDTYPE">
        <walk depart="30206.00" departPos="1.06" arrival="30213.00" arrivalPos="5.29" duration="7.00" routeLength="26.27" timeLoss="-13.27" maxSpeed="1.30"/>
        <ride waitingTime="519.00" vehicle="taxi80" depart="30732.00" arrival="30995.00" arrivalPos="20.00" duration="263.00" routeLength="4209.95" timeLoss="36.98"/>
        <walk depart="30995.00" departPos="20.00" arrival="30996.00" arrivalPos="20.38" duration="1.00" routeLength="0.38" timeLoss="0.71" maxSpeed="1.30"/>
    </personinfo>
    <personinfo id="d115" depart="30649.67" type="DEFAULT_PEDTYPE">
        <walk depart="30650.00" departPos="17.13" arrival="30652.00" arrivalPos="15.00" duration="2.00" routeLength="2.13" timeLoss="0.57" maxSpeed="1.49"/>
        <ride waitingTime="243.00" vehicle="taxi36" depart="30895.00" arrival="31019.00" arrivalPos="17.26" duration="124.00" routeLength="1533.40" timeLoss="20.91"/>
        <walk depart="31019.00" departPos="17.26" arrival="31073.00" arrivalPos="27.61" duration="54.00" routeLength="78.11" timeLoss="1.71" maxSpeed="1.49"/>
    </personinfo>
    <personinfo id="tn26" depart="29784.39" type="DEFAULT_PEDTYPE">
        <walk depart="29785.00" departPos="84.16" arrival="30098.00" arrivalPos="2.55" duration="313.00" routeLength="368.41" timeLoss="25.64" maxSpeed="1.28"/>
        <ride waitingTime="29.00" vehicle="taxi89" depart="30127.00" arrival="30403.00" arrivalPos="18.17" duration="276.00" routeLength="4471.21" timeLoss="35.95"/>
        <walk depart="30403.00" departPos="18.17" arrival="31168.00" arrivalPos="36.60" duration="765.00" routeLength="938.96" timeLoss="32.61" maxSpeed="1.28"/>
    </personinfo>
    <personinfo id="tp26" depart="29784.39" type="DEFAULT_PEDTYPE">
        <walk depart="29785.00" departPos="77.67" arrival="30082.00" arrivalPos="2.55" duration="297.00" routeLength="361.92" timeLoss="25.77" maxSpeed="1.33"/>
        <ride waitingTime="45.00" vehicle="taxi89" depart="30127.00" arrival="30403.00" arrivalPos="18.17" duration="276.00" routeLength="4471.21" timeLoss="35.95"/>
        <walk depart="30403.00" departPos="18.17" arrival="31169.00" arrivalPos="36.60" duration="766.00" routeLength="938.96" timeLoss="62.31" maxSpeed="1.33"/>
    </personinfo>
    <personinfo id="th32" depart="28958.69" type="DEFAULT_PEDTYPE">
        <walk depart="28959.00" departPos="3.09" arrival="28971.00" arrivalPos="15.53" duration="12.00" routeLength="12.44" timeLoss="2.12" maxSpeed="1.26"/>
        <ride waitingTime="946.00" vehicle="taxi81" depart="29917.00" arrival="31190.00" arrivalPos="6.18" duration="1273.00" routeLength="24309.10" timeLoss="79.44"/>
        <walk depart="31190.00" departPos="6.18" arrival="31211.00" arrivalPos="24.95" duration="21.00" routeLength="41.80" timeLoss="-12.20" maxSpeed="1.26"/>
    </personinfo>
    <personinfo id="tp32" depart="28958.69" type="DEFAULT_PEDTYPE">
        <walk depart="28959.00" departPos="36.78" arrival="28975.00" arrivalPos="15.53" duration="16.00" routeLength="21.25" timeLoss="2.06" maxSpeed="1.52"/>
        <ride waitingTime="946.00" vehicle="taxi81" depart="29921.00" arrival="31190.00" arrivalPos="6.18" duration="1269.00" routeLength="24305.79" timeLoss="76.84"/>
        <walk depart="31190.00" departPos="6.18" arrival="31212.00" arrivalPos="24.95" duration="22.00" routeLength="41.80" timeLoss="-5.43" maxSpeed="1.52"/>
    </personinfo>
    <personinfo id="tn32" depart="28958.69" type="DEFAULT_PEDTYPE">
        <walk depart="28959.00" departPos="62.68" arrival="28994.00" arrivalPos="15.53" duration="35.00" routeLength="47.15" timeLoss="3.45" maxSpeed="1.49"/>
        <ride waitingTime="927.00" vehicle="taxi81" depart="29921.00" arrival="31190.00" arrivalPos="6.18" duration="1269.00" routeLength="24305.79" timeLoss="76.84"/>
        <walk depart="31190.00" departPos="6.18" arrival="31216.00" arrivalPos="19.95" duration="26.00" routeLength="46.80" timeLoss="-5.32" maxSpeed="1.49"/>
    </personinfo>
    <personinfo id="tn48" depart="30772.95" type="DEFAULT_PEDTYPE">
        <walk depart="30773.00" departPos="13.51" arrival="30820.00" arrivalPos="10.67" duration="47.00" routeLength="68.59" timeLoss="6.36" maxSpeed="1.69"/>
        <ride waitingTime="62.00" vehicle="taxi89" depart="30882.00" arrival="31284.00" arrivalPos="20.00" duration="402.00" routeLength="6731.42" timeLoss="45.03"/>
        <walk depart="31284.00" departPos="20.00" arrival="31296.00" arrivalPos="1.20" duration="12.00" routeLength="18.80" timeLoss="0.86" maxSpeed="1.69"/>
    </personinfo>
    <personinfo id="th26" depart="29784.39" type="DEFAULT_PEDTYPE">
        <walk depart="29785.00" departPos="121.00" arrival="30175.00" arrivalPos="2.55" duration="390.00" routeLength="405.24" timeLoss="30.35" maxSpeed="1.13"/>
        <ride waitingTime="42.00" vehicle="taxi80" depart="30217.00" arrival="30493.00" arrivalPos="18.17" duration="276.00" routeLength="4471.21" timeLoss="37.95"/>
        <walk depart="30493.00" departPos="18.17" arrival="31367.00" arrivalPos="36.60" duration="874.00" routeLength="938.96" timeLoss="40.68" maxSpeed="1.13"/>
    </personinfo>
    <personinfo id="tn68" depart="30891.43" type="DEFAULT_PEDTYPE">
        <walk depart="30892.00" departPos="0.05" arrival="30897.00" arrivalPos="6.12" duration="5.00" routeLength="8.84" timeLoss="-0.58" maxSpeed="1.58"/>
        <ride waitingTime="382.00" vehicle="taxi36" depart="31279.00" arrival="31434.00" arrivalPos="109.72" duration="155.00" routeLength="2593.64" timeLoss="31.24"/>
        <walk depart="31434.00" departPos="109.72" arrival="31476.00" arrivalPos="0.15" duration="42.00" routeLength="56.08" timeLoss="6.59" maxSpeed="1.58"/>
    </personinfo>
    <personinfo id="th109" depart="30649.67" type="DEFAULT_PEDTYPE">
        <walk depart="30650.00" departPos="1.84" arrival="30918.00" arrivalPos="5.29" duration="268.00" routeLength="344.83" timeLoss="-2.89" maxSpeed="1.27"/>
        <ride waitingTime="351.00" vehicle="taxi36" depart="31269.00" arrival="31609.00" arrivalPos="15.00" duration="340.00" routeLength="3846.21" timeLoss="59.48"/>
        <walk depart="31609.00" departPos="15.00" arrival="31663.00" arrivalPos="14.92" duration="54.00" routeLength="63.55" timeLoss="4.07" maxSpeed="1.27"/>
    </personinfo>
    <personinfo id="tp109" depart="30649.67" type="DEFAULT_PEDTYPE">
        <walk depart="30650.00" departPos="5.87" arrival="30908.00" arrivalPos="5.29" duration="258.00" routeLength="340.80" timeLoss="-2.90" maxSpeed="1.31"/>
        <ride waitingTime="361.00" vehicle="taxi36" depart="31269.00" arrival="31609.00" arrivalPos="15.00" duration="340.00" routeLength="3846.21" timeLoss="59.48"/>
        <walk depart="31609.00" departPos="15.00" arrival="31663.00" arrivalPos="14.92" duration="54.00" routeLength="63.55" timeLoss="5.35" maxSpeed="1.31"/>
    </personinfo>
    <personinfo id="th156" depart="31417.42" type="DEFAULT_PEDTYPE">
        <walk depart="31418.00" departPos="32.07" arrival="31449.00" arrivalPos="7.50" duration="31.00" routeLength="50.46" timeLoss="-3.36" maxSpeed="1.47"/>
        <ride waitingTime="126.00" vehicle="taxi2" depart="31575.00" arrival="31730.00" arrivalPos="25.00" duration="155.00" routeLength="1492.64" timeLoss="25.78"/>
        <walk depart="31730.00" departPos="25.00" arrival="31739.00" arrivalPos="13.22" duration="9.00" routeLength="11.78" timeLoss="0.98" maxSpeed="1.47"/>
    </personinfo>
    <personinfo id="tp156" depart="31417.42" type="DEFAULT_PEDTYPE">
        <walk depart="31418.00" departPos="27.45" arrival="31446.00" arrivalPos="7.50" duration="28.00" routeLength="45.84" timeLoss="-3.60" maxSpeed="1.45"/>
        <ride waitingTime="129.00" vehicle="taxi2" depart="31575.00" arrival="31730.00" arrivalPos="25.00" duration="155.00" routeLength="1492.64" timeLoss="25.78"/>
        <walk depart="31730.00" departPos="25.00" arrival="31740.00" arrivalPos="13.22" duration="10.00" routeLength="11.78" timeLoss="1.88" maxSpeed="1.45"/>
    </personinfo>
    <personinfo id="d57" depart="30960.73" type="DEFAULT_PEDTYPE">
        <walk depart="30961.00" departPos="1.19" arrival="30973.00" arrivalPos="15.00" duration="12.00" routeLength="13.81" timeLoss="1.27" maxSpeed="1.29"/>
        <ride waitingTime="395.00" vehicle="taxi89" depart="31368.00" arrival="32016.00" arrivalPos="15.00" duration="648.00" routeLength="10971.90" timeLoss="93.93"/>
        <walk depart="32016.00" departPos="15.00" arrival="32022.00" arrivalPos="21.47" duration="6.00" routeLength="6.47" timeLoss="0.97" maxSpeed="1.29"/>
    </personinfo>
    <personinfo id="d35" depart="31079.74" type="DEFAULT_PEDTYPE">
        <walk depart="31080.00" departPos="10.69" arrival="31084.00" arrivalPos="15.00" duration="4.00" routeLength="4.31" timeLoss="0.69" maxSpeed="1.30"/>
        <ride waitingTime="35.00" vehicle="taxi80" depart="31119.00" arrival="31987.00" arrivalPos="15.00" duration="868.00" routeLength="16674.26" timeLoss="73.48"/>
        <walk depart="31987.00" departPos="15.00" arrival="32134.00" arrivalPos="1.00" duration="147.00" routeLength="212.89" timeLoss="-16.42" maxSpeed="1.30"/>
    </personinfo>
    <personinfo id="th153" depart="30962.87" type="DEFAULT_PEDTYPE">
        <walk depart="30963.00" departPos="63.23" arrival="31508.00" arrivalPos="184.55" duration="545.00" routeLength="704.98" timeLoss="37.48" maxSpeed="1.39"/>
        <ride waitingTime="410.00" vehicle="taxi36" depart="31918.00" arrival="32153.00" arrivalPos="25.00" duration="235.00" routeLength="2886.65" timeLoss="53.02"/>
        <walk depart="32153.00" departPos="25.00" arrival="32173.00" arrivalPos="0.17" duration="20.00" routeLength="24.83" timeLoss="2.13" maxSpeed="1.39"/>
    </personinfo>
    <personinfo id="tp153" depart="30962.87" type="DEFAULT_PEDTYPE">
        <walk depart="30963.00" departPos="92.38" arrival="31568.00" arrivalPos="184.55" duration="605.00" routeLength="734.13" timeLoss="40.66" maxSpeed="1.30"/>
        <ride waitingTime="350.00" vehicle="taxi36" depart="31918.00" arrival="32153.00" arrivalPos="25.00" duration="235.00" routeLength="2886.65" timeLoss="53.02"/>
        <walk depart="32153.00" departPos="25.00" arrival="32174.00" arrivalPos="0.17" duration="21.00" routeLength="24.83" timeLoss="1.91" maxSpeed="1.30"/>
    </personinfo>
    <personinfo id="th89" depart="31346.34" type="DEFAULT_PEDTYPE">
        <walk depart="31347.00" departPos="5.03" arrival="31470.00" arrivalPos="9.76" duration="123.00" routeLength="173.81" timeLoss="6.18" maxSpeed="1.49"/>
        <ride waitingTime="109.00" vehicle="taxi92" depart="31579.00" arrival="32157.00" arrivalPos="34.99" duration="578.00" routeLength="9566.43" timeLoss="61.50"/>
        <walk depart="32157.00" departPos="34.99" arrival="32193.00" arrivalPos="12.82" duration="36.00" routeLength="51.03" timeLoss="1.70" maxSpeed="1.49"/>
    </personinfo>
    <personinfo id="tp89" depart="31346.34" type="DEFAULT_PEDTYPE">
        <walk depart="31347.00" departPos="71.86" arrival="31434.00" arrivalPos="9.76" duration="87.00" routeLength="106.98" timeLoss="6.83" maxSpeed="1.33"/>
        <ride waitingTime="230.00" vehicle="taxi27" depart="31664.00" arrival="32210.00" arrivalPos="34.99" duration="546.00" routeLength="9565.63" timeLoss="62.23"/>
        <walk depart="32210.00" departPos="34.99" arrival="32251.00" arrivalPos="12.82" duration="41.00" routeLength="51.03" timeLoss="2.76" maxSpeed="1.33"/>
    </personinfo>
    <personinfo id="d141" depart="31854.41" type="DEFAULT_PEDTYPE">
        <walk depart="31855.00" departPos="2.79" arrival="31862.00" arrivalPos="10.00" duration="7.00" routeLength="7.21" timeLoss="1.55" maxSpeed="1.32"/>
        <ride waitingTime="371.00" vehicle="taxi36" depart="32233.00" arrival="32395.00" arrivalPos="33.59" duration="162.00" routeLength="1872.25" timeLoss="33.59"/>
        <walk depart="32395.00" departPos="33.59" arrival="32456.00" arrivalPos="36.77" duration="61.00" routeLength="76.07" timeLoss="3.51" maxSpeed="1.32"/>
    </personinfo>
    <personinfo id="th146" depart="32072.04" type="DEFAULT_PEDTYPE">
        <walk depart="32073.00" departPos="236.59" arrival="32253.00" arrivalPos="7.50" duration="180.00" routeLength="229.09" timeLoss="17.45" maxSpeed="1.41"/>
        <ride waitingTime="126.00" vehicle="taxi83" depart="32379.00" arrival="32592.00" arrivalPos="25.00" duration="213.00" routeLength="2295.31" timeLoss="29.24"/>
        <walk depart="32592.00" departPos="25.00" arrival="32602.00" arrivalPos="12.94" duration="10.00" routeLength="12.06" timeLoss="1.44" maxSpeed="1.41"/>
    </personinfo>
    <personinfo id="tp146" depart="32072.04" type="DEFAULT_PEDTYPE">
        <walk depart="32073.00" departPos="51.89" arrival="32113.00" arrivalPos="7.50" duration="40.00" routeLength="44.39" timeLoss="4.39" maxSpeed="1.25"/>
        <ride waitingTime="189.00" vehicle="taxi83" depart="32302.00" arrival="32592.00" arrivalPos="25.00" duration="290.00" routeLength="2780.83" timeLoss="44.09"/>
        <walk depart="32592.00" departPos="25.00" arrival="32603.00" arrivalPos="12.94" duration="11.00" routeLength="12.06" timeLoss="1.33" maxSpeed="1.25"/>
    </personinfo>
    <personinfo id="d135" depart="32308.99" type="DEFAULT_PEDTYPE">
        <walk depart="32309.00" departPos="17.15" arrival="32311.00" arrivalPos="15.00" duration="2.00" routeLength="2.15" timeLoss="0.45" maxSpeed="1.39"/>
        <ride waitingTime="40.00" vehicle="taxi54" depart="32351.00" arrival="32473.00" arrivalPos="95.33" duration="122.00" routeLength="1231.30" timeLoss="23.10"/>
        <walk depart="32473.00" departPos="95.33" arrival="32631.00" arrivalPos="46.41" duration="158.00" routeLength="252.67" timeLoss="-23.82" maxSpeed="1.39"/>
    </personinfo>
    <personinfo id="d112" depart="32394.65" type="DEFAULT_PEDTYPE">
        <walk depart="32395.00" departPos="12.09" arrival="32397.00" arrivalPos="10.00" duration="2.00" routeLength="2.09" timeLoss="0.61" maxSpeed="1.50"/>
        <ride waitingTime="38.00" vehicle="taxi45" depart="32435.00" arrival="32597.00" arrivalPos="44.82" duration="162.00" routeLength="2073.74" timeLoss="26.15"/>
        <walk depart="32597.00" departPos="44.82" arrival="32709.00" arrivalPos="2.94" duration="112.00" routeLength="153.54" timeLoss="9.39" maxSpeed="1.50"/>
    </personinfo>
    <personinfo id="d91" depart="32165.36" type="DEFAULT_PEDTYPE">
        <walk depart="32166.00" departPos="25.83" arrival="32174.00" arrivalPos="15.00" duration="8.00" routeLength="10.83" timeLoss="0.39" maxSpeed="1.42"/>
        <ride waitingTime="52.00" vehicle="taxi63" depart="32226.00" arrival="32706.00" arrivalPos="23.03" duration="480.00" routeLength="6651.72" timeLoss="78.03"/>
        <walk depart="32706.00" departPos="23.03" arrival="32813.00" arrivalPos="33.80" duration="107.00" routeLength="138.69" timeLoss="9.56" maxSpeed="1.42"/>
    </personinfo>
    <personinfo id="d144" depart="32585.92" type="DEFAULT_PEDTYPE">
        <walk depart="32586.00" departPos="14.12" arrival="32587.00" arrivalPos="15.00" duration="1.00" routeLength="0.88" timeLoss="0.33" maxSpeed="1.31"/>
        <ride waitingTime="73.00" vehicle="taxi18" depart="32660.00" arrival="32802.00" arrivalPos="53.58" duration="142.00" routeLength="1640.39" timeLoss="23.65"/>
        <walk depart="32802.00" departPos="53.58" arrival="32852.00" arrivalPos="70.72" duration="50.00" routeLength="61.37" timeLoss="3.14" maxSpeed="1.31"/>
    </personinfo>
    <personinfo id="th136" depart="32421.41" type="DEFAULT_PEDTYPE">
        <walk depart="32422.00" departPos="3.91" arrival="32625.00" arrivalPos="37.39" duration="203.00" routeLength="262.32" timeLoss="18.53" maxSpeed="1.42"/>
        <ride waitingTime="49.00" vehicle="taxi47" depart="32674.00" arrival="32881.00" arrivalPos="25.00" duration="207.00" routeLength="2304.50" timeLoss="37.41"/>
        <walk depart="32881.00" departPos="25.00" arrival="32893.00" arrivalPos="9.21" duration="12.00" routeLength="15.79" timeLoss="0.90" maxSpeed="1.42"/>
    </personinfo>
    <personinfo id="tp136" depart="32421.41" type="DEFAULT_PEDTYPE">
        <walk depart="32422.00" departPos="3.54" arrival="32631.00" arrivalPos="37.39" duration="209.00" routeLength="262.69" timeLoss="17.73" maxSpeed="1.37"/>
        <ride waitingTime="74.00" vehicle="taxi47" depart="32705.00" arrival="32881.00" arrivalPos="25.00" duration="176.00" routeLength="2129.99" timeLoss="21.98"/>
        <walk depart="32881.00" departPos="25.00" arrival="32895.00" arrivalPos="9.21" duration="14.00" routeLength="15.79" timeLoss="2.50" maxSpeed="1.37"/>
    </personinfo>
    <personinfo id="th63" depart="30915.84" type="DEFAULT_PEDTYPE">
        <walk depart="30916.00" departPos="62.04" arrival="31375.00" arrivalPos="87.83" duration="459.00" routeLength="568.82" timeLoss="35.83" maxSpeed="1.34"/>
        <ride waitingTime="117.00" vehicle="taxi27" depart="31492.00" arrival="32862.00" arrivalPos="15.00" duration="1370.00" routeLength="19985.83" timeLoss="143.08"/>
        <walk depart="32862.00" departPos="15.00" arrival="32960.00" arrivalPos="7.10" duration="98.00" routeLength="119.44" timeLoss="9.15" maxSpeed="1.34"/>
    </personinfo>
    <personinfo id="d153" depart="32072.04" type="DEFAULT_PEDTYPE">
        <walk depart="32073.00" departPos="16.01" arrival="32074.00" arrivalPos="15.00" duration="1.00" routeLength="1.01" timeLoss="0.18" maxSpeed="1.23"/>
        <ride waitingTime="53.00" vehicle="taxi36" depart="32127.00" arrival="32562.00" arrivalPos="73.53" duration="435.00" routeLength="3500.22" timeLoss="91.06"/>
        <walk depart="32562.00" departPos="73.53" arrival="32962.00" arrivalPos="62.03" duration="400.00" routeLength="460.44" timeLoss="26.64" maxSpeed="1.23"/>
    </personinfo>
    <personinfo id="tp63" depart="30915.84" type="DEFAULT_PEDTYPE">
        <walk depart="30916.00" departPos="3.70" arrival="31335.00" arrivalPos="87.83" duration="419.00" routeLength="510.48" timeLoss="30.57" maxSpeed="1.31"/>
        <ride waitingTime="157.00" vehicle="taxi27" depart="31492.00" arrival="32862.00" arrivalPos="15.00" duration="1370.00" routeLength="19985.83" timeLoss="143.08"/>
        <walk depart="32862.00" departPos="15.00" arrival="32963.00" arrivalPos="7.10" duration="101.00" routeLength="119.44" timeLoss="10.12" maxSpeed="1.31"/>
    </personinfo>
    <personinfo id="d42" depart="32180.65" type="DEFAULT_PEDTYPE">
        <walk depart="32181.00" departPos="7.95" arrival="32186.00" arrivalPos="15.00" duration="5.00" routeLength="7.05" timeLoss="0.66" maxSpeed="1.63"/>
        <ride waitingTime="70.00" vehicle="taxi63" depart="32256.00" arrival="33032.00" arrivalPos="25.93" duration="776.00" routeLength="11073.89" timeLoss="103.14"/>
        <walk depart="33032.00" departPos="25.93" arrival="33045.00" arrivalPos="7.56" duration="13.00" routeLength="18.37" timeLoss="1.70" maxSpeed="1.63"/>