<?xml version="1.0" encoding="UTF-8"?>

<!-- generated by Eclipse SUMO sumo Version 1.12.0
<configuration xmlns:xsi="http://www.w3.org/2001/XMLSchema-instance" xsi:noNamespaceSchemaLocation="http://sumo.dlr.de/xsd/sumoConfiguration.xsd">

    <input>
        <net-file value="D:\Dokumente\sumo\maloja\simple.net.xml"/>
        <route-files value="D:\Dokumente\sumo\maloja\01_schools\persontrips_maloja_school_resolved_offseason_taxi_modded_with_parents.rou.xml,D:\Dokumente\sumo\maloja\02_work\persontrips_maloja_work_resolved_offseason_taxi.rou.xml,D:\Dokumente\sumo\maloja\04_shopping\persontrips_maloja_shopping_resolved_offseason_taxi.rou.xml,D:\Dokumente\sumo\maloja\05_seniors\persontrips_maloja_seniors_resolved_offseason_taxi.rou.xml"/>
        <additional-files value="D:\Dokumente\sumo\maloja\03_bus\virtualstop.add.xml,D:\Dokumente\sumo\maloja\03_bus\03_November\gtfs_pt_stops.add.xml,drt_fleet.xml"/>
    </input>

    <output>
        <tripinfo-output value="tripinfos_drt.xml"/>
        <tripinfo-output.write-unfinished value="true"/>
        <stop-output value="stopinfos_drt.xml"/>
        <statistic-output value="stats_drt.xml"/>
    </output>

    <time>
        <begin value="20520"/>
        <end value="77400"/>
    </time>

    <routing>
        <routing-algorithm value="CH"/>
        <persontrip.transfer.taxi-walk value="ptStops"/>
        <persontrip.transfer.walk-taxi value="ptStops"/>
    </routing>

    <report>
        <verbose value="true"/>
        <log value="simulation.log.txt"/>
        <error-log value="sumo_error.log"/>
        <duration-log.statistics value="true"/>
    </report>

    <taxi_device>
        <device.taxi.dispatch-algorithm value="traci"/>
    </taxi_device>

    <traci_server>
        <remote-port value="56195"/>
    </traci_server>

</configuration>
-->

<tripinfos xmlns:xsi="http://www.w3.org/2001/XMLSchema-instance" xsi:noNamespaceSchemaLocation="http://sumo.dlr.de/xsd/tripinfo_file.xsd">
    <personinfo id="w582" depart="21673.98" type="DEFAULT_PEDTYPE">
        <walk depart="21674.00" departPos="4.29" arrival="21888.00" arrivalPos="87.83" duration="214.00" routeLength="228.04" timeLoss="24.84" maxSpeed="1.21"/>
        <ride waitingTime="144.00" vehicle="taxi81" depart="22032.00" arrival="22271.00" arrivalPos="12.25" duration="239.00" routeLength="3860.52" timeLoss="29.30"/>
        <walk depart="22271.00" departPos="12.25" arrival="22449.00" arrivalPos="16.78" duration="178.00" routeLength="201.58" timeLoss="10.79" maxSpeed="1.21"/>
    </personinfo>
    <personinfo id="w61" depart="22187.91" type="DEFAULT_PEDTYPE">
        <walk depart="22188.00" departPos="8.02" arrival="22428.00" arrivalPos="2.10" duration="240.00" routeLength="289.92" timeLoss="14.42" maxSpeed="1.29"/>
        <ride waitingTime="22.00" vehicle="NULL" depart="-1" arrival="22450.00" arrivalPos="15.00" duration="22450.00" routeLength="-1.00" timeLoss="-0.00"/>
        <stop duration="0.00" arrival="22450.00" arrivalPos="3.79" actType="last stage removed"/>
    </personinfo>
    <personinfo id="w692" depart="22314.00" type="DEFAULT_PEDTYPE">
        <walk depart="22314.00" departPos="13.40" arrival="22359.00" arrivalPos="37.39" duration="45.00" routeLength="53.99" timeLoss="2.28" maxSpeed="1.26"/>
        <ride waitingTime="21.00" vehicle="taxi146" depart="22380.00" arrival="22563.00" arrivalPos="20.00" duration="183.00" routeLength="2155.20" timeLoss="26.88"/>
        <walk depart="22563.00" departPos="20.00" arrival="22569.00" arrivalPos="14.07" duration="6.00" routeLength="5.93" timeLoss="1.31" maxSpeed="1.26"/>
    </personinfo>
    <personinfo id="w517" depart="22041.84" type="DEFAULT_PEDTYPE">
        <walk depart="22042.00" departPos="2.63" arrival="22157.00" arrivalPos="14.90" duration="115.00" routeLength="188.96" timeLoss="-1.37" maxSpeed="1.62"/>
        <ride waitingTime="147.00" vehicle="taxi90" depart="22304.00" arrival="22628.00" arrivalPos="15.00" duration="324.00" routeLength="4379.12" timeLoss="55.32"/>
        <walk depart="22628.00" departPos="15.00" arrival="22643.00" arrivalPos="11.81" duration="15.00" routeLength="32.09" timeLoss="-4.76" maxSpeed="1.62"/>
    </personinfo>
    <personinfo id="w6" depart="21655.65" type="DEFAULT_PEDTYPE">
        <walk depart="21656.00" departPos="25.57" arrival="21758.00" arrivalPos="50.34" duration="102.00" routeLength="126.54" timeLoss="2.37" maxSpeed="1.27"/>
        <ride waitingTime="324.00" vehicle="taxi70" depart="22082.00" arrival="22556.00" arrivalPos="44.42" duration="474.00" routeLength="8581.90" timeLoss="51.00"/>
        <walk depart="22556.00" departPos="44.42" arrival="22758.00" arrivalPos="7.84" duration="202.00" routeLength="258.35" timeLoss="-1.42" maxSpeed="1.27"/>
    </personinfo>
    <personinfo id="w38" depart="21758.69" type="DEFAULT_PEDTYPE">
        <walk depart="21759.00" departPos="6.19" arrival="21995.00" arrivalPos="7.50" duration="236.00" routeLength="353.92" timeLoss="-30.58" maxSpeed="1.33"/>
        <ride waitingTime="219.00" vehicle="taxi160" depart="22214.00" arrival="22755.00" arrivalPos="6.18" duration="541.00" routeLength="8924.32" timeLoss="60.83"/>
        <walk depart="22755.00" departPos="6.18" arrival="22782.00" arrivalPos="16.52" duration="27.00" routeLength="50.23" timeLoss="-10.84" maxSpeed="1.33"/>
    </personinfo>
    <personinfo id="w477" depart="21955.36" type="DEFAULT_PEDTYPE">
        <walk depart="21956.00" departPos="6.27" arrival="22470.00" arrivalPos="15.00" duration="514.00" routeLength="734.18" timeLoss="11.68" maxSpeed="1.46"/>
        <ride waitingTime="41.00" vehicle="taxi108" depart="22511.00" arrival="22778.00" arrivalPos="10.59" duration="267.00" routeLength="4253.25" timeLoss="38.04"/>
        <walk depart="22778.00" departPos="10.59" arrival="22803.00" arrivalPos="2.51" duration="25.00" routeLength="32.18" timeLoss="2.99" maxSpeed="1.46"/>
    </personinfo>
    <personinfo id="w650" depart="22089.60" type="DEFAULT_PEDTYPE">
        <walk depart="22090.00" departPos="5.63" arrival="22603.00" arrivalPos="7.77" duration="513.00" routeLength="691.65" timeLoss="-3.96" maxSpeed="1.34"/>
        <ride waitingTime="152.00" vehicle="taxi99" depart="22755.00" arrival="22871.00" arrivalPos="25.00" duration="116.00" routeLength="1222.58" timeLoss="27.45"/>
        <walk depart="22871.00" departPos="25.00" arrival="22882.00" arrivalPos="12.82" duration="11.00" routeLength="12.18" timeLoss="1.90" maxSpeed="1.34"/>
    </personinfo>
    <personinfo id="w726" depart="22229.06" type="DEFAULT_PEDTYPE">
        <walk depart="22230.00" departPos="2.69" arrival="22236.00" arrivalPos="5.29" duration="6.00" routeLength="27.89" timeLoss="-12.38" maxSpeed="1.52"/>
        <ride waitingTime="117.00" vehicle="taxi155" depart="22353.00" arrival="22970.00" arrivalPos="25.00" duration="617.00" routeLength="9480.13" timeLoss="94.27"/>
        <walk depart="22970.00" departPos="25.00" arrival="22974.00" arrivalPos="19.38" duration="4.00" routeLength="5.62" timeLoss="0.30" maxSpeed="1.52"/>
    </personinfo>
    <personinfo id="w592" depart="21912.99" type="DEFAULT_PEDTYPE">
        <walk depart="21913.00" departPos="9.73" arrival="22069.00" arrivalPos="23.94" duration="156.00" routeLength="195.01" timeLoss="13.14" maxSpeed="1.37"/>
        <ride waitingTime="383.00" vehicle="taxi81" depart="22452.00" arrival="22833.00" arrivalPos="25.48" duration="381.00" routeLength="5141.08" timeLoss="48.23"/>
        <walk depart="22833.00" departPos="25.48" arrival="23049.00" arrivalPos="12.26" duration="216.00" routeLength="276.80" timeLoss="13.22" maxSpeed="1.37"/>
    </personinfo>
    <personinfo id="w8" depart="21981.92" type="DEFAULT_PEDTYPE">
        <walk depart="21982.00" departPos="29.61" arrival="22190.00" arrivalPos="7.26" duration="208.00" routeLength="326.36" timeLoss="-18.71" maxSpeed="1.44"/>
        <ride waitingTime="39.00" vehicle="taxi157" depart="22229.00" arrival="22882.00" arrivalPos="18.64" duration="653.00" routeLength="13186.69" timeLoss="37.91"/>
        <walk depart="22882.00" departPos="18.64" arrival="23058.00" arrivalPos="0.16" duration="176.00" routeLength="290.80" timeLoss="-26.01" maxSpeed="1.44"/>
    </personinfo>
    <personinfo id="w855" depart="22284.37" type="DEFAULT_PEDTYPE">
        <walk depart="22285.00" departPos="14.88" arrival="22286.00" arrivalPos="15.00" duration="1.00" routeLength="0.12" timeLoss="0.92" maxSpeed="1.58"/>
        <ride waitingTime="302.00" vehicle="taxi81" depart="22588.00" arrival="23029.00" arrivalPos="73.53" duration="441.00" routeLength="5987.46" timeLoss="65.88"/>
        <walk depart="23029.00" departPos="73.53" arrival="23061.00" arrivalPos="28.72" duration="32.00" routeLength="44.81" timeLoss="3.68" maxSpeed="1.58"/>
    </personinfo>
    <personinfo id="w220" depart="21942.87" type="DEFAULT_PEDTYPE">
        <walk depart="21943.00" departPos="50.40" arrival="22248.00" arrivalPos="10.67" duration="305.00" routeLength="403.82" timeLoss="2.78" maxSpeed="1.34"/>
        <ride waitingTime="302.00" vehicle="taxi155" depart="22550.00" arrival="22824.00" arrivalPos="31.44" duration="274.00" routeLength="4790.84" timeLoss="34.73"/>
        <walk depart="22824.00" departPos="31.44" arrival="23075.00" arrivalPos="16.03" duration="251.00" routeLength="325.93" timeLoss="7.07" maxSpeed="1.34"/>
    </personinfo>
    <personinfo id="w550" depart="22400.84" type="DEFAULT_PEDTYPE">
        <walk depart="22401.00" departPos="13.78" arrival="22429.00" arrivalPos="16.58" duration="28.00" routeLength="40.48" timeLoss="-4.98" maxSpeed="1.23"/>
        <ride waitingTime="393.00" vehicle="taxi146" depart="22822.00" arrival="23080.00" arrivalPos="20.00" duration="258.00" routeLength="2553.90" timeLoss="35.03"/>
        <walk depart="23080.00" departPos="20.00" arrival="23164.00" arrivalPos="47.38" duration="84.00" routeLength="87.59" timeLoss="12.65" maxSpeed="1.23"/>
    </personinfo>
    <personinfo id="w271" depart="22209.79" type="DEFAULT_PEDTYPE">
        <walk depart="22210.00" departPos="41.22" arrival="22478.00" arrivalPos="66.03" duration="268.00" routeLength="380.57" timeLoss="22.08" maxSpeed="1.55"/>
        <ride waitingTime="64.00" vehicle="taxi38" depart="22542.00" arrival="22922.00" arrivalPos="384.72" duration="380.00" routeLength="8178.56" timeLoss="28.75"/>
        <walk depart="22922.00" departPos="384.72" arrival="23250.00" arrivalPos="504.08" duration="328.00" routeLength="456.35" timeLoss="33.11" maxSpeed="1.55"/>
    </personinfo>
    <personinfo id="w300" depart="21749.63" type="DEFAULT_PEDTYPE">
        <walk depart="21750.00" departPos="11.91" arrival="22209.00" arrivalPos="87.83" duration="459.00" routeLength="663.51" timeLoss="9.25" maxSpeed="1.48"/>
        <ride waitingTime="193.00" vehicle="taxi90" depart="22402.00" arrival="22915.00" arrivalPos="37.25" duration="513.00" routeLength="7262.26" timeLoss="63.85"/>
        <walk depart="22915.00" departPos="37.25" arrival="23291.00" arrivalPos="31.47" duration="376.00" routeLength="537.65" timeLoss="11.56" maxSpeed="1.48"/>
    </personinfo>
    <personinfo id="w772" depart="22753.78" type="DEFAULT_PEDTYPE">
        <walk depart="22754.00" departPos="0.71" arrival="22766.00" arrivalPos="15.00" duration="12.00" routeLength="14.29" timeLoss="1.54" maxSpeed="1.37"/>
        <ride waitingTime="195.00" vehicle="taxi99" depart="22961.00" arrival="23353.00" arrivalPos="15.00" duration="392.00" routeLength="6944.55" timeLoss="46.75"/>
        <walk depart="23353.00" departPos="15.00" arrival="23418.00" arrivalPos="94.97" duration="65.00" routeLength="79.97" timeLoss="6.42" maxSpeed="1.37"/>
    </personinfo>
    <personinfo id="w243" depart="22608.03" type="DEFAULT_PEDTYPE">
        <walk depart="22609.00" departPos="103.45" arrival="22819.00" arrivalPos="7.04" duration="210.00" routeLength="346.36" timeLoss="1.96" maxSpeed="1.66"/>
        <ride waitingTime="373.00" vehicle="taxi81" depart="23192.00" arrival="23445.00" arrivalPos="25.00" duration="253.00" routeLength="4158.31" timeLoss="28.53"/>
        <walk depart="23445.00" departPos="25.00" arrival="23455.00" arrivalPos="11.24" duration="10.00" routeLength="13.76" timeLoss="1.74" maxSpeed="1.66"/>
    </personinfo>
    <personinfo id="w241" depart="22898.74" type="DEFAULT_PEDTYPE">
        <walk depart="22899.00" departPos="18.52" arrival="22923.00" arrivalPos="48.13" duration="24.00" routeLength="29.61" timeLoss="2.33" maxSpeed="1.37"/>
        <ride waitingTime="165.00" vehicle="taxi141" depart="23088.00" arrival="23480.00" arrivalPos="25.00" duration="392.00" routeLength="6860.33" timeLoss="46.65"/>
        <walk depart="23480.00" departPos="25.00" arrival="23498.00" arrivalPos="3.67" duration="18.00" routeLength="21.33" timeLoss="2.39" maxSpeed="1.37"/>
    </personinfo>
    <personinfo id="w394" depart="22217.73" type="DEFAULT_PEDTYPE">
        <walk depart="22218.00" departPos="35.99" arrival="22822.00" arrivalPos="20.48" duration="604.00" routeLength="771.88" timeLoss="45.94" maxSpeed="1.38"/>
        <ride waitingTime="447.00" vehicle="taxi155" depart="23269.00" arrival="23492.00" arrivalPos="22.40" duration="223.00" routeLength="3395.76" timeLoss="30.26"/>
        <walk depart="23492.00" departPos="22.40" arrival="23528.00" arrivalPos="21.14" duration="36.00" routeLength="61.03" timeLoss="-8.12" maxSpeed="1.38"/>
    </personinfo>
    <personinfo id="w143" depart="22703.27" type="DEFAULT_PEDTYPE">
        <walk depart="22704.00" departPos="27.18" arrival="22809.00" arrivalPos="18.43" duration="105.00" routeLength="132.40" timeLoss="-3.85" maxSpeed="1.22"/>
        <ride waitingTime="45.00" vehicle="taxi161" depart="22854.00" arrival="23288.00" arrivalPos="25.48" duration="434.00" routeLength="7729.42" timeLoss="61.78"/>
        <walk depart="23288.00" departPos="25.48" arrival="23553.00" arrivalPos="1.16" duration="265.00" routeLength="307.94" timeLoss="11.83" maxSpeed="1.22"/>
    </personinfo>
    <personinfo id="w172" depart="22341.96" type="DEFAULT_PEDTYPE">
        <walk depart="22342.00" departPos="4.20" arrival="22887.00" arrivalPos="15.53" duration="545.00" routeLength="889.37" timeLoss="36.45" maxSpeed="1.75"/>
        <ride waitingTime="163.00" vehicle="taxi108" depart="23050.00" arrival="23500.00" arrivalPos="15.00" duration="450.00" routeLength="6837.01" timeLoss="72.09"/>
        <walk depart="23500.00" departPos="15.00" arrival="23642.00" arrivalPos="6.60" duration="142.00" routeLength="248.83" timeLoss="-0.29" maxSpeed="1.75"/>
    </personinfo>
    <personinfo id="w659" depart="22806.22" type="DEFAULT_PEDTYPE">
        <walk depart="22807.00" departPos="120.22" arrival="23240.00" arrivalPos="184.55" duration="433.00" routeLength="547.80" timeLoss="96.56" maxSpeed="1.63"/>
        <ride waitingTime="256.00" vehicle="taxi161" depart="23496.00" arrival="23675.00" arrivalPos="25.00" duration="179.00" routeLength="2655.19" timeLoss="28.28"/>
        <walk depart="23675.00" departPos="25.00" arrival="23677.00" arrivalPos="27.38" duration="2.00" routeLength="2.38" timeLoss="0.54" maxSpeed="1.63"/>
    </personinfo>
    <personinfo id="w611" depart="23307.55" type="DEFAULT_PEDTYPE">
        <walk depart="23308.00" departPos="10.09" arrival="23431.00" arrivalPos="9.76" duration="123.00" routeLength="168.75" timeLoss="4.54" maxSpeed="1.42"/>
        <ride waitingTime="99.00" vehicle="taxi137" depart="23530.00" arrival="23603.00" arrivalPos="15.00" duration="73.00" routeLength="570.19" timeLoss="16.38"/>
        <walk depart="23603.00" departPos="15.00" arrival="23709.00" arrivalPos="125.45" duration="106.00" routeLength="149.22" timeLoss="1.25" maxSpeed="1.42"/>
    </personinfo>
    <personinfo id="w169" depart="22473.90" type="DEFAULT_PEDTYPE">
        <walk depart="22474.00" departPos="13.31" arrival="22500.00" arrivalPos="6.62" duration="26.00" routeLength="28.36" timeLoss="3.40" maxSpeed="1.26"/>
        <ride waitingTime="515.00" vehicle="taxi108" depart="23015.00" arrival="23342.00" arrivalPos="5.00" duration="327.00" routeLength="5451.55" timeLoss="57.66"/>
        <walk depart="23342.00" departPos="5.00" arrival="23758.00" arrivalPos="15.09" duration="416.00" routeLength="498.51" timeLoss="18.84" maxSpeed="1.26"/>
    </personinfo>
    <personinfo id="w12" depart="23615.92" type="DEFAULT_PEDTYPE">
        <walk depart="23616.00" departPos="4.45" arrival="23674.00" arrivalPos="11.14" duration="58.00" routeLength="91.82" timeLoss="0.82" maxSpeed="1.61"/>
        <ride waitingTime="20.00" vehicle="taxi88" depart="23694.00" arrival="23751.00" arrivalPos="15.00" duration="57.00" routeLength="506.33" timeLoss="19.08"/>
        <walk depart="23751.00" departPos="15.00" arrival="23770.00" arrivalPos="1.93" duration="19.00" routeLength="33.46" timeLoss="-1.84" maxSpeed="1.61"/>
    </personinfo>
    <personinfo id="w591" depart="22867.39" type="DEFAULT_PEDTYPE">
        <walk depart="22868.00" departPos="1.34" arrival="22903.00" arrivalPos="5.29" duration="35.00" routeLength="78.56" timeLoss="-16.84" maxSpeed="1.52"/>
        <ride waitingTime="254.00" vehicle="taxi81" depart="23157.00" arrival="23497.00" arrivalPos="25.00" duration="340.00" routeLength="4616.27" timeLoss="59.96"/>
        <walk depart="23497.00" departPos="25.00" arrival="23869.00" arrivalPos="1.37" duration="372.00" routeLength="544.59" timeLoss="12.65" maxSpeed="1.52"/>
    </personinfo>
    <personinfo id="w971" depart="23131.64" type="DEFAULT_PEDTYPE">
        <walk depart="23132.00" departPos="21.96" arrival="23138.00" arrivalPos="15.00" duration="6.00" routeLength="6.96" timeLoss="0.85" maxSpeed="1.35"/>
        <ride waitingTime="425.00" vehicle="taxi141" depart="23563.00" arrival="23881.00" arrivalPos="10.59" duration="318.00" routeLength="4633.25" timeLoss="64.97"/>
        <walk depart="23881.00" departPos="10.59" arrival="23892.00" arrivalPos="2.11" duration="11.00" routeLength="19.26" timeLoss="-3.26" maxSpeed="1.35"/>
    </personinfo>
    <personinfo id="w491" depart="22673.38" type="DEFAULT_PEDTYPE">
        <walk depart="22674.00" departPos="109.45" arrival="23260.00" arrivalPos="15.00" duration="586.00" routeLength="852.13" timeLoss="32.59" maxSpeed="1.54"/>
        <ride waitingTime="480.00" vehicle="taxi38" depart="23740.00" arrival="24005.00" arrivalPos="237.79" duration="265.00" routeLength="2641.12" timeLoss="61.82"/>
        <walk depart="24005.00" departPos="237.79" arrival="24007.00" arrivalPos="2.61" duration="2.00" routeLength="14.83" timeLoss="-7.63" maxSpeed="1.54"/>
    </personinfo>
    <personinfo id="w214" depart="21815.86" type="DEFAULT_PEDTYPE">
        <walk depart="21816.00" departPos="773.46" arrival="22845.00" arrivalPos="26.78" duration="1029.00" routeLength="1407.67" timeLoss="98.89" maxSpeed="1.51"/>
        <ride waitingTime="223.00" vehicle="taxi38" depart="23068.00" arrival="23723.00" arrivalPos="25.00" duration="655.00" routeLength="12947.80" timeLoss="52.01"/>
        <walk depart="23723.00" departPos="25.00" arrival="24043.00" arrivalPos="29.19" duration="320.00" routeLength="461.09" timeLoss="15.34" maxSpeed="1.51"/>
    </personinfo>
    <personinfo id="w325" depart="22779.20" type="DEFAULT_PEDTYPE">
        <walk depart="22780.00" departPos="49.72" arrival="23239.00" arrivalPos="184.55" duration="459.00" routeLength="531.51" timeLoss="50.04" maxSpeed="1.30"/>
        <ride waitingTime="378.00" vehicle="taxi99" depart="23617.00" arrival="23928.00" arrivalPos="51.36" duration="311.00" routeLength="4650.24" timeLoss="80.64"/>
        <walk depart="23928.00" departPos="51.36" arrival="24080.00" arrivalPos="1.48" duration="152.00" routeLength="210.13" timeLoss="-9.68" maxSpeed="1.30"/>
    </personinfo>
    <personinfo id="s375" depart="23645.88" type="DEFAULT_PEDTYPE">
        <walk depart="23646.00" departPos="5.83" arrival="23672.00" arrivalPos="51.49" duration="26.00" routeLength="26.49" timeLoss="4.26" maxSpeed="1.22"/>
        <ride waitingTime="70.00" vehicle="taxi2" depart="23742.00" arrival="24069.00" arrivalPos="14.90" duration="327.00" routeLength="3225.16" timeLoss="76.86"/>
        <walk depart="24069.00" departPos="14.90" arrival="24088.00" arrivalPos="1.44" duration="19.00" routeLength="27.41" timeLoss="-3.49" maxSpeed="1.22"/>
    </personinfo>
    <personinfo id="p375" depart="23645.88" type="DEFAULT_PEDTYPE">
        <walk depart="23646.00" departPos="12.98" arrival="23679.00" arrivalPos="51.49" duration="33.00" routeLength="33.65" timeLoss="4.41" maxSpeed="1.18"/>
        <ride waitingTime="102.00" vehicle="taxi2" depart="23781.00" arrival="24069.00" arrivalPos="14.90" duration="288.00" routeLength="2929.75" timeLoss="61.86"/>
        <walk depart="24069.00" departPos="14.90" arrival="24091.00" arrivalPos="6.30" duration="22.00" routeLength="32.27" timeLoss="-5.42" maxSpeed="1.18"/>
    </personinfo>
    <personinfo id="w553" depart="22938.16" type="DEFAULT_PEDTYPE">
        <walk depart="22939.00" departPos="37.49" arrival="23308.00" arrivalPos="184.55" duration="369.00" routeLength="498.99" timeLoss="34.69" maxSpeed="1.49"/>
        <ride waitingTime="358.00" vehicle="taxi99" depart="23666.00" arrival="24024.00" arrivalPos="32.59" duration="358.00" routeLength="4418.14" timeLoss="70.83"/>
        <walk depart="24024.00" departPos="32.59" arrival="24094.00" arrivalPos="5.56" duration="70.00" routeLength="97.51" timeLoss="4.67" maxSpeed="1.49"/>
    </personinfo>
    <personinfo id="w426" depart="23385.32" type="DEFAULT_PEDTYPE">
        <walk depart="23386.00" departPos="30.38" arrival="23522.00" arrivalPos="14.90" duration="136.00" routeLength="164.22" timeLoss="13.33" maxSpeed="1.34"/>
        <ride waitingTime="131.00" vehicle="taxi0" depart="23653.00" arrival="24031.00" arrivalPos="51.36" duration="378.00" routeLength="3176.17" timeLoss="80.15"/>
        <walk depart="24031.00" departPos="51.36" arrival="24120.00" arrivalPos="19.66" duration="89.00" routeLength="134.75" timeLoss="-11.65" maxSpeed="1.34"/>
    </personinfo>
    <personinfo id="w890" depart="23605.96" type="DEFAULT_PEDTYPE">
        <walk depart="23606.00" departPos="25.90" arrival="23617.00" arrivalPos="15.00" duration="11.00" routeLength="10.90" timeLoss="1.56" maxSpeed="1.15"/>
        <ride waitingTime="150.00" vehicle="taxi0" depart="23767.00" arrival="23926.00" arrivalPos="17.26" duration="159.00" routeLength="1679.67" timeLoss="46.87"/>
        <walk depart="23926.00" departPos="17.26" arrival="24122.00" arrivalPos="108.76" duration="196.00" routeLength="214.26" timeLoss="10.35" maxSpeed="1.15"/>
    </personinfo>
    <personinfo id="w414" depart="23214.82" type="DEFAULT_PEDTYPE">
        <walk depart="23215.00" departPos="34.40" arrival="23280.00" arrivalPos="7.50" duration="65.00" routeLength="88.55" timeLoss="-0.53" maxSpeed="1.35"/>
        <ride waitingTime="443.00" vehicle="taxi155" depart="23723.00" arrival="23938.00" arrivalPos="46.63" duration="215.00" routeLength="2173.46" timeLoss="37.59"/>
        <walk depart="23938.00" departPos="46.63" arrival="24128.00" arrivalPos="10.88" duration="190.00" routeLength="293.02" timeLoss="-26.85" maxSpeed="1.35"/>
    </personinfo>
    <personinfo id="w349" depart="23123.81" type="DEFAULT_PEDTYPE">
        <walk depart="23124.00" departPos="0.81" arrival="23295.00" arrivalPos="14.90" duration="171.00" routeLength="246.64" timeLoss="-7.68" maxSpeed="1.38"/>
        <ride waitingTime="386.00" vehicle="taxi141" depart="23681.00" arrival="24017.00" arrivalPos="73.53" duration="336.00" routeLength="4716.90" timeLoss="63.11"/>
        <walk depart="24017.00" departPos="73.53" arrival="24168.00" arrivalPos="5.04" duration="151.00" routeLength="196.81" timeLoss="8.43" maxSpeed="1.38"/>
    </personinfo>
    <personinfo id="w914" depart="23624.21" type="DEFAULT_PEDTYPE">
        <walk depart="23625.00" departPos="13.57" arrival="23626.00" arrivalPos="15.00" duration="1.00" routeLength="1.43" timeLoss="0.09" maxSpeed="1.57"/>
        <ride waitingTime="141.00" vehicle="taxi38" depart="23767.00" arrival="24146.00" arrivalPos="51.36" duration="379.00" routeLength="3401.45" timeLoss="66.95"/>
        <walk depart="24146.00" departPos="51.36" arrival="24202.00" arrivalPos="1.63" duration="56.00" routeLength="107.63" timeLoss="-12.67" maxSpeed="1.57"/>
    </personinfo>
    <personinfo id="w334" depart="23382.15" type="DEFAULT_PEDTYPE">
        <walk depart="23383.00" departPos="80.62" arrival="23461.00" arrivalPos="5.29" duration="78.00" routeLength="134.30" timeLoss="-19.51" maxSpeed="1.38"/>
        <ride waitingTime="311.00" vehicle="taxi99" depart="23772.00" arrival="24142.00" arrivalPos="63.57" duration="370.00" routeLength="3341.22" timeLoss="57.59"/>
        <walk depart="24142.00" departPos="63.57" arrival="24223.00" arrivalPos="34.54" duration="81.00" routeLength="138.52" timeLoss="-19.57" maxSpeed="1.38"/>
    </personinfo>
    <personinfo id="w915" depart="23636.60" type="DEFAULT_PEDTYPE">
        <walk depart="23637.00" departPos="0.21" arrival="23649.00" arrivalPos="15.00" duration="12.00" routeLength="14.79" timeLoss="1.34" maxSpeed="1.39"/>
        <ride waitingTime="154.00" vehicle="taxi0" depart="23803.00" arrival="24181.00" arrivalPos="53.58" duration="378.00" routeLength="2795.22" timeLoss="62.80"/>
        <walk depart="24181.00" departPos="53.58" arrival="24225.00" arrivalPos="74.73" duration="44.00" routeLength="57.36" timeLoss="2.65" maxSpeed="1.39"/>
    </personinfo>
    <personinfo id="w295" depart="23334.61" type="DEFAULT_PEDTYPE">
        <walk depart="23335.00" departPos="42.61" arrival="23402.00" arrivalPos="7.50" duration="67.00" routeLength="82.79" timeLoss="8.25" maxSpeed="1.41"/>
        <ride waitingTime="412.00" vehicle="taxi161" depart="23814.00" arrival="24097.00" arrivalPos="14.08" duration="283.00" routeLength="4086.32" timeLoss="41.91"/>
        <walk depart="24097.00" departPos="14.08" arrival="24238.00" arrivalPos="12.62" duration="141.00" routeLength="203.79" timeLoss="-3.62" maxSpeed="1.41"/>
    </personinfo>
    <personinfo id="w187" depart="22546.82" type="DEFAULT_PEDTYPE">
        <walk depart="22547.00" departPos="353.05" arrival="23505.00" arrivalPos="75.31" duration="958.00" routeLength="1205.61" timeLoss="94.90" maxSpeed="1.40"/>
        <ride waitingTime="168.00" vehicle="taxi6" depart="23673.00" arrival="23894.00" arrivalPos="10.59" duration="221.00" routeLength="4044.60" timeLoss="29.30"/>
        <walk depart="23894.00" departPos="10.59" arrival="24240.00" arrivalPos="120.53" duration="346.00" routeLength="483.23" timeLoss="0.05" maxSpeed="1.40"/>
    </personinfo>
    <personinfo id="p365" depart="23791.80" type="DEFAULT_PEDTYPE">
        <walk depart="23792.00" departPos="11.09" arrival="23914.00" arrivalPos="7.50" duration="122.00" routeLength="155.74" timeLoss="25.67" maxSpeed="1.62"/>
        <ride waitingTime="123.00" vehicle="taxi128" depart="24037.00" arrival="24224.00" arrivalPos="14.90" duration="187.00" routeLength="3531.69" timeLoss="22.07"/>
        <walk depart="24224.00" departPos="14.90" arrival="24243.00" arrivalPos="9.45" duration="19.00" routeLength="35.42" timeLoss="-2.91" maxSpeed="1.62"/>
    </personinfo>
    <personinfo id="s365" depart="23791.80" type="DEFAULT_PEDTYPE">
        <walk depart="23792.00" departPos="7.52" arrival="23913.00" arrivalPos="7.50" duration="121.00" routeLength="152.16" timeLoss="8.55" maxSpeed="1.35"/>
        <ride waitingTime="124.00" vehicle="taxi128" depart="24037.00" arrival="24224.00" arrivalPos="14.90" duration="187.00" routeLength="3531.69" timeLoss="22.07"/>
        <walk depart="24224.00" departPos="14.90" arrival="24249.00" arrivalPos="12.97" duration="25.00" routeLength="38.94" timeLoss="-3.78" maxSpeed="1.35"/>
    </personinfo>
    <personinfo id="w549" depart="23492.12" type="DEFAULT_PEDTYPE">
        <walk depart="23493.00" departPos="29.03" arrival="23677.00" arrivalPos="553.86" duration="184.00" routeLength="226.18" timeLoss="22.50" maxSpeed="1.40"/>
        <ride waitingTime="343.00" vehicle="taxi6" depart="24020.00" arrival="24167.00" arrivalPos="9.87" duration="147.00" routeLength="1946.54" timeLoss="25.40"/>
        <walk depart="24167.00" departPos="9.87" arrival="24290.00" arrivalPos="5.83" duration="123.00" routeLength="165.22" timeLoss="5.03" maxSpeed="1.40"/>
    </personinfo>
    <personinfo id="s300" depart="23740.73" type="DEFAULT_PEDTYPE">
        <walk depart="23741.00" departPos="14.73" arrival="23819.00" arrivalPos="7.50" duration="78.00" routeLength="111.03" timeLoss="0.40" maxSpeed="1.43"/>
        <ride waitingTime="210.00" vehicle="taxi117" depart="24029.00" arrival="24292.00" arrivalPos="15.00" duration="263.00" routeLength="2388.60" timeLoss="54.68"/>
        <walk depart="24292.00" departPos="15.00" arrival="24303.00" arrivalPos="1.31" duration="11.00" routeLength="13.69" timeLoss="1.43" maxSpeed="1.43"/>
    </personinfo>
    <personinfo id="w689" depart="23604.99" type="DEFAULT_PEDTYPE">
        <walk depart="23605.00" departPos="0.15" arrival="23644.00" arrivalPos="51.49" duration="39.00" routeLength="54.84" timeLoss="2.66" maxSpeed="1.51"/>
        <ride waitingTime="516.00" vehicle="taxi99" depart="24160.00" arrival="24306.00" arrivalPos="20.00" duration="146.00" routeLength="1774.19" timeLoss="32.48"/>
        <walk depart="24306.00" departPos="20.00" arrival="24310.00" arrivalPos="14.99" duration="4.00" routeLength="5.01" timeLoss="0.68" maxSpeed="1.51"/>
    </personinfo>
    <personinfo id="s92" depart="23770.79" type="DEFAULT_PEDTYPE">
        <walk depart="23771.00" departPos="1.67" arrival="23794.00" arrivalPos="3.04" duration="23.00" routeLength="45.90" timeLoss="-4.47" maxSpeed="1.67"/>
        <ride waitingTime="65.00" vehicle="taxi139" depart="23859.00" arrival="24139.00" arrivalPos="73.49" duration="280.00" routeLength="2919.09" timeLoss="33.40"/>
        <walk depart="24139.00" departPos="73.49" arrival="24331.00" arrivalPos="198.28" duration="192.00" routeLength="307.05" timeLoss="8.28" maxSpeed="1.67"/>
    </personinfo>