<?xml version="1.0" encoding="UTF-8"?>

<!-- generated by Eclipse SUMO sumo Version 1.12.0
<configuration xmlns:xsi="http://www.w3.org/2001/XMLSchema-instance" xsi:noNamespaceSchemaLocation="http://sumo.dlr.de/xsd/sumoConfiguration.xsd">

    <input>
        <net-file value="D:\Dokumente\sumo\maloja\simple.net.xml"/>
        <route-files value="D:\Dokumente\sumo\maloja\01_schools\persontrips_maloja_school_resolved_offseason_taxi_modded_with_parents.rou.xml,D:\Dokumente\sumo\maloja\02_work\persontrips_maloja_work_resolved_offseason_taxi.rou.xml,D:\Dokumente\sumo\maloja\04_shopping\persontrips_maloja_shopping_resolved_offseason_taxi.rou.xml,D:\Dokumente\sumo\maloja\05_seniors\persontrips_maloja_seniors_resolved_offseason_taxi.rou.xml,D:\Dokumente\sumo\maloja\09_daytrips\persontrips_maloja_daytrips_resolved_offseason_taxi.rou.xml,D:\Dokumente\sumo\maloja\11_hotel\persontrips_maloja_hotel_resolved_offseason_taxi.rou.xml,D:\Dokumente\sumo\maloja\12_non_hotel\persontrips_maloja_non_hotel_resolved_offseason_taxi.rou.xml,D:\Dokumente\sumo\maloja\13_private\persontrips_maloja_private_resolved_offseason_taxi.rou.xml"/>
        <additional-files value="D:\Dokumente\sumo\maloja\03_bus\virtualstop.add.xml,D:\Dokumente\sumo\maloja\03_bus\03_November\gtfs_pt_stops.add.xml,D:\Dokumente\sumo\maloja\15_drt_fleet\drt_fleet.xml,D:\Dokumente\sumo\maloja\15_drt_fleet\drt_parking.add.xml,D:\Dokumente\sumo\maloja\15_drt_fleet\drt_parking_rerouter.add.xml"/>
    </input>

    <output>
        <tripinfo-output value="tripinfos_drt.xml"/>
        <tripinfo-output.write-unfinished value="true"/>
        <stop-output value="stopinfos_drt.xml"/>
        <statistic-output value="stats_drt.xml"/>
    </output>

    <time>
        <begin value="20520"/>
        <end value="77400"/>
    </time>

    <routing>
        <routing-algorithm value="CH"/>
        <persontrip.transfer.taxi-walk value="ptStops"/>
        <persontrip.transfer.walk-taxi value="ptStops"/>
    </routing>

    <report>
        <verbose value="true"/>
        <log value="simulation.log.txt"/>
        <error-log value="sumo_error.log"/>
        <duration-log.statistics value="true"/>
    </report>

    <taxi_device>
        <device.taxi.dispatch-algorithm value="traci"/>
    </taxi_device>

    <traci_server>
        <remote-port value="64099"/>
    </traci_server>

    <gui_only>
        <gui-settings-file value="view.xml"/>
    </gui_only>

</configuration>
-->

<tripinfos xmlns:xsi="http://www.w3.org/2001/XMLSchema-instance" xsi:noNamespaceSchemaLocation="http://sumo.dlr.de/xsd/tripinfo_file.xsd">
    <personinfo id="w582" depart="21673.98" type="DEFAULT_PEDTYPE">
        <walk depart="21674.00" departPos="9.61" arrival="21845.00" arrivalPos="87.83" duration="171.00" routeLength="222.72" timeLoss="19.93" maxSpeed="1.47"/>
        <ride waitingTime="132.00" vehicle="taxi171" depart="21977.00" arrival="22229.00" arrivalPos="12.25" duration="252.00" routeLength="3860.52" timeLoss="30.88"/>
        <walk depart="22229.00" departPos="12.25" arrival="22374.00" arrivalPos="16.78" duration="145.00" routeLength="201.58" timeLoss="8.27" maxSpeed="1.47"/>
    </personinfo>
    <personinfo id="w61" depart="22187.91" type="DEFAULT_PEDTYPE">
        <walk depart="22188.00" departPos="97.23" arrival="22458.00" arrivalPos="2.10" duration="270.00" routeLength="379.13" timeLoss="18.26" maxSpeed="1.51"/>
        <ride waitingTime="22.00" vehicle="NULL" depart="-1" arrival="22480.00" arrivalPos="15.00" duration="22480.00" routeLength="-1.00" timeLoss="-0.00"/>
        <stop duration="0.00" arrival="22480.00" arrivalPos="3.79" actType="last stage removed"/>
    </personinfo>
    <personinfo id="w6" depart="21655.65" type="DEFAULT_PEDTYPE">
        <walk depart="21656.00" departPos="19.90" arrival="21727.00" arrivalPos="50.34" duration="71.00" routeLength="120.86" timeLoss="1.89" maxSpeed="1.75"/>
        <ride waitingTime="317.00" vehicle="taxi358" depart="22044.00" arrival="22505.00" arrivalPos="44.42" duration="461.00" routeLength="8581.90" timeLoss="51.28"/>
        <walk depart="22505.00" departPos="44.42" arrival="22658.00" arrivalPos="7.84" duration="153.00" routeLength="258.35" timeLoss="5.27" maxSpeed="1.75"/>
    </personinfo>
    <personinfo id="w855" depart="22284.37" type="DEFAULT_PEDTYPE">
        <walk depart="22285.00" departPos="8.87" arrival="22290.00" arrivalPos="15.00" duration="5.00" routeLength="6.13" timeLoss="0.80" maxSpeed="1.46"/>
        <ride waitingTime="40.00" vehicle="taxi18" depart="22330.00" arrival="22738.00" arrivalPos="73.53" duration="408.00" routeLength="4414.01" timeLoss="64.87"/>
        <walk depart="22738.00" departPos="73.53" arrival="22772.00" arrivalPos="28.72" duration="34.00" routeLength="44.81" timeLoss="3.34" maxSpeed="1.46"/>
    </personinfo>
    <personinfo id="w38" depart="21758.69" type="DEFAULT_PEDTYPE">
        <walk depart="21759.00" departPos="8.44" arrival="22044.00" arrivalPos="7.50" duration="285.00" routeLength="356.17" timeLoss="-34.27" maxSpeed="1.12"/>
        <ride waitingTime="220.00" vehicle="taxi43" depart="22264.00" arrival="22767.00" arrivalPos="6.18" duration="503.00" routeLength="8924.32" timeLoss="59.88"/>
        <walk depart="22767.00" departPos="6.18" arrival="22799.00" arrivalPos="16.52" duration="32.00" routeLength="50.23" timeLoss="-13.03" maxSpeed="1.12"/>
    </personinfo>
    <personinfo id="w692" depart="22314.00" type="DEFAULT_PEDTYPE">
        <walk depart="22314.00" departPos="14.70" arrival="22348.00" arrivalPos="37.39" duration="34.00" routeLength="55.29" timeLoss="2.16" maxSpeed="1.74"/>
        <ride waitingTime="278.00" vehicle="taxi144" depart="22626.00" arrival="22824.00" arrivalPos="20.00" duration="198.00" routeLength="2155.20" timeLoss="28.61"/>
        <walk depart="22824.00" departPos="20.00" arrival="22828.00" arrivalPos="14.07" duration="4.00" routeLength="5.93" timeLoss="0.59" maxSpeed="1.74"/>
    </personinfo>
    <personinfo id="w477" depart="21955.36" type="DEFAULT_PEDTYPE">
        <walk depart="21956.00" departPos="14.22" arrival="22499.00" arrivalPos="15.00" duration="543.00" routeLength="742.12" timeLoss="17.22" maxSpeed="1.41"/>
        <ride waitingTime="42.00" vehicle="taxi234" depart="22541.00" arrival="22824.00" arrivalPos="10.59" duration="283.00" routeLength="4252.45" timeLoss="35.10"/>
        <walk depart="22824.00" departPos="10.59" arrival="22850.00" arrivalPos="2.51" duration="26.00" routeLength="32.18" timeLoss="3.20" maxSpeed="1.41"/>
    </personinfo>
    <personinfo id="w550" depart="22400.84" type="DEFAULT_PEDTYPE">
        <walk depart="22401.00" departPos="15.24" arrival="22435.00" arrivalPos="16.58" duration="34.00" routeLength="41.94" timeLoss="-5.23" maxSpeed="1.07"/>
        <ride waitingTime="133.00" vehicle="taxi173" depart="22568.00" arrival="22795.00" arrivalPos="20.00" duration="227.00" routeLength="2553.90" timeLoss="30.12"/>
        <walk depart="22795.00" departPos="20.00" arrival="22892.00" arrivalPos="47.38" duration="97.00" routeLength="87.59" timeLoss="15.08" maxSpeed="1.07"/>
    </personinfo>
    <personinfo id="w517" depart="22041.84" type="DEFAULT_PEDTYPE">
        <walk depart="22042.00" departPos="48.38" arrival="22192.00" arrivalPos="14.90" duration="150.00" routeLength="234.71" timeLoss="1.05" maxSpeed="1.58"/>
        <ride waitingTime="438.00" vehicle="taxi171" depart="22630.00" arrival="22995.00" arrivalPos="15.00" duration="365.00" routeLength="4042.31" timeLoss="44.18"/>
        <walk depart="22995.00" departPos="15.00" arrival="23010.00" arrivalPos="11.81" duration="15.00" routeLength="32.09" timeLoss="-5.36" maxSpeed="1.58"/>
    </personinfo>
    <personinfo id="w726" depart="22229.06" type="DEFAULT_PEDTYPE">
        <walk depart="22230.00" departPos="1.20" arrival="22235.00" arrivalPos="5.29" duration="5.00" routeLength="26.41" timeLoss="-10.96" maxSpeed="1.66"/>
        <ride waitingTime="122.00" vehicle="taxi119" depart="22357.00" arrival="23026.00" arrivalPos="25.00" duration="669.00" routeLength="9480.13" timeLoss="90.67"/>
        <walk depart="23026.00" departPos="25.00" arrival="23030.00" arrivalPos="19.38" duration="4.00" routeLength="5.62" timeLoss="0.61" maxSpeed="1.66"/>
    </personinfo>
    <personinfo id="w592" depart="21912.99" type="DEFAULT_PEDTYPE">
        <walk depart="21913.00" departPos="0.32" arrival="22065.00" arrivalPos="23.94" duration="152.00" routeLength="185.61" timeLoss="12.41" maxSpeed="1.33"/>
        <ride waitingTime="383.00" vehicle="taxi171" depart="22448.00" arrival="22815.00" arrivalPos="25.48" duration="367.00" routeLength="4394.05" timeLoss="44.86"/>
        <walk depart="22815.00" departPos="25.48" arrival="23037.00" arrivalPos="12.26" duration="222.00" routeLength="276.80" timeLoss="13.82" maxSpeed="1.33"/>
    </personinfo>
    <personinfo id="w220" depart="21942.87" type="DEFAULT_PEDTYPE">
        <walk depart="21943.00" departPos="85.79" arrival="22311.00" arrivalPos="10.67" duration="368.00" routeLength="439.21" timeLoss="6.89" maxSpeed="1.22"/>
        <ride waitingTime="244.00" vehicle="taxi119" depart="22555.00" arrival="22833.00" arrivalPos="31.44" duration="278.00" routeLength="4790.84" timeLoss="33.17"/>
        <walk depart="22833.00" departPos="31.44" arrival="23106.00" arrivalPos="16.03" duration="273.00" routeLength="325.93" timeLoss="5.03" maxSpeed="1.22"/>
    </personinfo>
    <personinfo id="w8" depart="21981.92" type="DEFAULT_PEDTYPE">
        <walk depart="21982.00" departPos="31.54" arrival="22225.00" arrivalPos="7.26" duration="243.00" routeLength="328.28" timeLoss="-22.77" maxSpeed="1.24"/>
        <ride waitingTime="35.00" vehicle="taxi121" depart="22260.00" arrival="22906.00" arrivalPos="18.64" duration="646.00" routeLength="13186.69" timeLoss="37.33"/>
        <walk depart="22906.00" departPos="18.64" arrival="23112.00" arrivalPos="0.16" duration="206.00" routeLength="290.80" timeLoss="-29.43" maxSpeed="1.24"/>
    </personinfo>
    <personinfo id="w650" depart="22089.60" type="DEFAULT_PEDTYPE">
        <walk depart="22090.00" departPos="1.10" arrival="22609.00" arrivalPos="7.77" duration="519.00" routeLength="687.12" timeLoss="-5.98" maxSpeed="1.31"/>
        <ride waitingTime="420.00" vehicle="taxi144" depart="23029.00" arrival="23287.00" arrivalPos="25.00" duration="258.00" routeLength="2227.77" timeLoss="41.27"/>
        <walk depart="23287.00" departPos="25.00" arrival="23298.00" arrivalPos="12.82" duration="11.00" routeLength="12.18" timeLoss="1.69" maxSpeed="1.31"/>
    </personinfo>
    <personinfo id="w271" depart="22209.79" type="DEFAULT_PEDTYPE">
        <walk depart="22210.00" departPos="26.88" arrival="22483.00" arrivalPos="66.03" duration="273.00" routeLength="366.23" timeLoss="20.55" maxSpeed="1.45"/>
        <ride waitingTime="93.00" vehicle="taxi344" depart="22576.00" arrival="22977.00" arrivalPos="384.72" duration="401.00" routeLength="8178.56" timeLoss="28.01"/>
        <walk depart="22977.00" departPos="384.72" arrival="23326.00" arrivalPos="504.08" duration="349.00" routeLength="456.35" timeLoss="34.43" maxSpeed="1.45"/>
    </personinfo>
    <personinfo id="w772" depart="22753.78" type="DEFAULT_PEDTYPE">
        <walk depart="22754.00" departPos="1.33" arrival="22765.00" arrivalPos="15.00" duration="11.00" routeLength="13.67" timeLoss="1.17" maxSpeed="1.39"/>
        <ride waitingTime="118.00" vehicle="taxi173" depart="22883.00" arrival="23269.00" arrivalPos="15.00" duration="386.00" routeLength="6944.55" timeLoss="48.93"/>
        <walk depart="23269.00" departPos="15.00" arrival="23334.00" arrivalPos="94.97" duration="65.00" routeLength="79.97" timeLoss="7.50" maxSpeed="1.39"/>
    </personinfo>
    <personinfo id="w300" depart="21749.63" type="DEFAULT_PEDTYPE">
        <walk depart="21750.00" departPos="28.24" arrival="22287.00" arrivalPos="87.83" duration="537.00" routeLength="679.84" timeLoss="10.73" maxSpeed="1.29"/>
        <ride waitingTime="171.00" vehicle="taxi18" depart="22458.00" arrival="23061.00" arrivalPos="37.25" duration="603.00" routeLength="7465.01" timeLoss="69.82"/>
        <walk depart="23061.00" departPos="37.25" arrival="23487.00" arrivalPos="31.47" duration="426.00" routeLength="537.65" timeLoss="9.80" maxSpeed="1.29"/>
    </personinfo>
    <personinfo id="w143" depart="22703.27" type="DEFAULT_PEDTYPE">
        <walk depart="22704.00" departPos="19.80" arrival="22796.00" arrivalPos="18.43" duration="92.00" routeLength="139.78" timeLoss="-2.80" maxSpeed="1.47"/>
        <ride waitingTime="56.00" vehicle="taxi278" depart="22852.00" arrival="23300.00" arrivalPos="25.48" duration="448.00" routeLength="7729.42" timeLoss="59.20"/>
        <walk depart="23300.00" departPos="25.48" arrival="23520.00" arrivalPos="1.16" duration="220.00" routeLength="307.94" timeLoss="11.16" maxSpeed="1.47"/>
    </personinfo>
    <personinfo id="w394" depart="22217.73" type="DEFAULT_PEDTYPE">
        <walk depart="22218.00" departPos="43.93" arrival="22877.00" arrivalPos="20.48" duration="659.00" routeLength="779.82" timeLoss="52.65" maxSpeed="1.29"/>
        <ride waitingTime="370.00" vehicle="taxi171" depart="23247.00" arrival="23496.00" arrivalPos="22.40" duration="249.00" routeLength="3395.76" timeLoss="32.63"/>
        <walk depart="23496.00" departPos="22.40" arrival="23535.00" arrivalPos="21.14" duration="39.00" routeLength="61.03" timeLoss="-8.45" maxSpeed="1.29"/>
    </personinfo>
    <personinfo id="w241" depart="22898.74" type="DEFAULT_PEDTYPE">
        <walk depart="22899.00" departPos="35.13" arrival="22909.00" arrivalPos="48.13" duration="10.00" routeLength="13.00" timeLoss="1.72" maxSpeed="1.57"/>
        <ride waitingTime="215.00" vehicle="taxi393" depart="23124.00" arrival="23525.00" arrivalPos="25.00" duration="401.00" routeLength="6860.33" timeLoss="47.52"/>
        <walk depart="23525.00" departPos="25.00" arrival="23540.00" arrivalPos="3.67" duration="15.00" routeLength="21.33" timeLoss="1.41" maxSpeed="1.57"/>
    </personinfo>
    <personinfo id="w296" depart="22744.44" type="DEFAULT_PEDTYPE">
        <walk depart="22745.00" departPos="26.82" arrival="22887.00" arrivalPos="7.50" duration="142.00" routeLength="202.40" timeLoss="10.81" maxSpeed="1.54"/>
        <ride waitingTime="293.00" vehicle="taxi144" depart="23180.00" arrival="23585.00" arrivalPos="15.00" duration="405.00" routeLength="4953.80" timeLoss="53.90"/>
        <walk depart="23585.00" departPos="15.00" arrival="23606.00" arrivalPos="13.37" duration="21.00" routeLength="38.82" timeLoss="-4.16" maxSpeed="1.54"/>
    </personinfo>
    <personinfo id="w243" depart="22608.03" type="DEFAULT_PEDTYPE">
        <walk depart="22609.00" departPos="124.47" arrival="22894.00" arrivalPos="7.04" duration="285.00" routeLength="367.39" timeLoss="3.69" maxSpeed="1.31"/>
        <ride waitingTime="224.00" vehicle="taxi171" depart="23118.00" arrival="23675.00" arrivalPos="25.00" duration="557.00" routeLength="5772.82" timeLoss="82.09"/>
        <walk depart="23675.00" departPos="25.00" arrival="23687.00" arrivalPos="11.24" duration="12.00" routeLength="13.76" timeLoss="1.46" maxSpeed="1.31"/>
    </personinfo>
    <personinfo id="w172" depart="22341.96" type="DEFAULT_PEDTYPE">
        <walk depart="22342.00" departPos="1.23" arrival="22999.00" arrivalPos="15.53" duration="657.00" routeLength="886.40" timeLoss="40.28" maxSpeed="1.44"/>
        <ride waitingTime="296.00" vehicle="taxi18" depart="23295.00" arrival="23555.00" arrivalPos="15.00" duration="260.00" routeLength="4509.73" timeLoss="35.41"/>
        <walk depart="23555.00" departPos="15.00" arrival="23725.00" arrivalPos="6.60" duration="170.00" routeLength="248.83" timeLoss="-3.13" maxSpeed="1.44"/>
    </personinfo>
    <personinfo id="w1018" depart="23006.58" type="DEFAULT_PEDTYPE">
        <walk depart="23007.00" departPos="0.69" arrival="23015.00" arrivalPos="10.00" duration="8.00" routeLength="9.31" timeLoss="1.38" maxSpeed="1.41"/>
        <ride waitingTime="97.00" vehicle="taxi119" depart="23112.00" arrival="23316.00" arrivalPos="45.55" duration="204.00" routeLength="2750.52" timeLoss="38.73"/>
        <walk depart="23316.00" departPos="45.55" arrival="23770.00" arrivalPos="59.86" duration="454.00" routeLength="579.58" timeLoss="41.51" maxSpeed="1.41"/>
    </personinfo>
    <personinfo id="w169" depart="22473.90" type="DEFAULT_PEDTYPE">
        <walk depart="22474.00" departPos="0.94" arrival="22511.00" arrivalPos="6.62" duration="37.00" routeLength="40.73" timeLoss="5.08" maxSpeed="1.28"/>
        <ride waitingTime="560.00" vehicle="taxi234" depart="23071.00" arrival="23390.00" arrivalPos="5.00" duration="319.00" routeLength="5120.44" timeLoss="44.41"/>
        <walk depart="23390.00" departPos="5.00" arrival="23800.00" arrivalPos="15.09" duration="410.00" routeLength="498.51" timeLoss="19.38" maxSpeed="1.28"/>
    </personinfo>
    <personinfo id="w915" depart="23636.60" type="DEFAULT_PEDTYPE">
        <walk depart="23637.00" departPos="27.03" arrival="23646.00" arrivalPos="15.00" duration="9.00" routeLength="12.03" timeLoss="0.78" maxSpeed="1.46"/>
        <ride waitingTime="37.00" vehicle="taxi153" depart="23683.00" arrival="23824.00" arrivalPos="53.58" duration="141.00" routeLength="1614.57" timeLoss="24.77"/>
        <walk depart="23824.00" departPos="53.58" arrival="23866.00" arrivalPos="74.73" duration="42.00" routeLength="57.36" timeLoss="2.78" maxSpeed="1.46"/>
    </personinfo>
    <personinfo id="w971" depart="23131.64" type="DEFAULT_PEDTYPE">
        <walk depart="23132.00" departPos="19.87" arrival="23136.00" arrivalPos="15.00" duration="4.00" routeLength="4.87" timeLoss="0.33" maxSpeed="1.33"/>
        <ride waitingTime="475.00" vehicle="taxi393" depart="23611.00" arrival="23867.00" arrivalPos="10.59" duration="256.00" routeLength="4252.45" timeLoss="32.30"/>
        <walk depart="23867.00" departPos="10.59" arrival="23878.00" arrivalPos="2.11" duration="11.00" routeLength="19.26" timeLoss="-3.50" maxSpeed="1.33"/>
    </personinfo>
    <personinfo id="w325" depart="22779.20" type="DEFAULT_PEDTYPE">
        <walk depart="22780.00" departPos="47.11" arrival="23166.00" arrivalPos="184.55" duration="386.00" routeLength="528.89" timeLoss="43.93" maxSpeed="1.55"/>
        <ride waitingTime="252.00" vehicle="taxi119" depart="23418.00" arrival="23749.00" arrivalPos="51.36" duration="331.00" routeLength="4650.24" timeLoss="78.37"/>
        <walk depart="23749.00" departPos="51.36" arrival="23878.00" arrivalPos="1.48" duration="129.00" routeLength="210.13" timeLoss="-6.91" maxSpeed="1.55"/>
    </personinfo>
    <personinfo id="w689" depart="23604.99" type="DEFAULT_PEDTYPE">
        <walk depart="23605.00" departPos="58.72" arrival="23679.00" arrivalPos="51.49" duration="74.00" routeLength="113.41" timeLoss="5.55" maxSpeed="1.66"/>
        <ride waitingTime="59.00" vehicle="taxi137" depart="23738.00" arrival="23879.00" arrivalPos="20.00" duration="141.00" routeLength="1775.72" timeLoss="23.44"/>
        <walk depart="23879.00" departPos="20.00" arrival="23883.00" arrivalPos="14.99" duration="4.00" routeLength="5.01" timeLoss="0.98" maxSpeed="1.66"/>
    </personinfo>
    <personinfo id="w895" depart="23007.38" type="DEFAULT_PEDTYPE">
        <walk depart="23008.00" departPos="2.91" arrival="23017.00" arrivalPos="15.00" duration="9.00" routeLength="12.09" timeLoss="0.84" maxSpeed="1.48"/>
        <ride waitingTime="120.00" vehicle="taxi119" depart="23137.00" arrival="23571.00" arrivalPos="10.59" duration="434.00" routeLength="5380.54" timeLoss="90.58"/>
        <walk depart="23571.00" departPos="10.59" arrival="23885.00" arrivalPos="30.18" duration="314.00" routeLength="473.17" timeLoss="-5.15" maxSpeed="1.48"/>
    </personinfo>
    <personinfo id="w611" depart="23307.55" type="DEFAULT_PEDTYPE">
        <walk depart="23308.00" departPos="71.38" arrival="23381.00" arrivalPos="9.76" duration="73.00" routeLength="107.47" timeLoss="1.29" maxSpeed="1.50"/>
        <ride waitingTime="346.00" vehicle="taxi83" depart="23727.00" arrival="23802.00" arrivalPos="15.00" duration="75.00" routeLength="570.19" timeLoss="17.66"/>
        <walk depart="23802.00" departPos="15.00" arrival="23904.00" arrivalPos="125.45" duration="102.00" routeLength="149.22" timeLoss="2.42" maxSpeed="1.50"/>
    </personinfo>
    <personinfo id="w659" depart="22806.22" type="DEFAULT_PEDTYPE">
        <walk depart="22807.00" departPos="66.41" arrival="23276.00" arrivalPos="184.55" duration="469.00" routeLength="493.99" timeLoss="52.45" maxSpeed="1.19"/>
        <ride waitingTime="457.00" vehicle="taxi144" depart="23733.00" arrival="23942.00" arrivalPos="25.00" duration="209.00" routeLength="2655.19" timeLoss="29.05"/>
        <walk depart="23942.00" departPos="25.00" arrival="23945.00" arrivalPos="27.38" duration="3.00" routeLength="2.38" timeLoss="0.99" maxSpeed="1.19"/>
    </personinfo>
    <personinfo id="w553" depart="22938.16" type="DEFAULT_PEDTYPE">
        <walk depart="22939.00" departPos="12.48" arrival="23373.00" arrivalPos="184.55" duration="434.00" routeLength="523.99" timeLoss="39.21" maxSpeed="1.33"/>
        <ride waitingTime="96.00" vehicle="taxi119" depart="23469.00" arrival="23880.00" arrivalPos="32.59" duration="411.00" routeLength="5127.12" timeLoss="87.61"/>
        <walk depart="23880.00" departPos="32.59" arrival="23960.00" arrivalPos="5.56" duration="80.00" routeLength="97.51" timeLoss="6.54" maxSpeed="1.33"/>
    </personinfo>
    <personinfo id="w977" depart="23602.43" type="DEFAULT_PEDTYPE">
        <walk depart="23603.00" departPos="22.87" arrival="23613.00" arrivalPos="10.00" duration="10.00" routeLength="12.87" timeLoss="1.59" maxSpeed="1.53"/>
        <ride waitingTime="67.00" vehicle="taxi243" depart="23680.00" arrival="23796.00" arrivalPos="21.05" duration="116.00" routeLength="1248.55" timeLoss="21.78"/>
        <walk depart="23796.00" departPos="21.05" arrival="23984.00" arrivalPos="21.61" duration="188.00" routeLength="260.15" timeLoss="17.95" maxSpeed="1.53"/>
    </personinfo>
    <personinfo id="w426" depart="23385.32" type="DEFAULT_PEDTYPE">
        <walk depart="23386.00" departPos="20.84" arrival="23510.00" arrivalPos="14.90" duration="124.00" routeLength="154.68" timeLoss="10.63" maxSpeed="1.36"/>
        <ride waitingTime="150.00" vehicle="taxi333" depart="23660.00" arrival="23945.00" arrivalPos="51.36" duration="285.00" routeLength="2985.21" timeLoss="48.42"/>
        <walk depart="23945.00" departPos="51.36" arrival="24031.00" arrivalPos="19.66" duration="86.00" routeLength="134.75" timeLoss="-12.77" maxSpeed="1.36"/>
    </personinfo>
    <personinfo id="w12" depart="23615.92" type="DEFAULT_PEDTYPE">
        <walk depart="23616.00" departPos="2.43" arrival="23691.00" arrivalPos="11.14" duration="75.00" routeLength="89.80" timeLoss="1.04" maxSpeed="1.21"/>
        <ride waitingTime="271.00" vehicle="taxi210" depart="23962.00" arrival="24017.00" arrivalPos="15.00" duration="55.00" routeLength="506.33" timeLoss="18.70"/>
        <walk depart="24017.00" departPos="15.00" arrival="24040.00" arrivalPos="1.93" duration="23.00" routeLength="33.46" timeLoss="-4.56" maxSpeed="1.21"/>
    </personinfo>
    <personinfo id="s375" depart="23645.88" type="DEFAULT_PEDTYPE">
        <walk depart="23646.00" departPos="10.64" arrival="23670.00" arrivalPos="51.49" duration="24.00" routeLength="31.30" timeLoss="3.93" maxSpeed="1.56"/>
        <ride waitingTime="68.00" vehicle="taxi137" depart="23738.00" arrival="24061.00" arrivalPos="14.90" duration="323.00" routeLength="2821.34" timeLoss="49.09"/>
        <walk depart="24061.00" departPos="14.90" arrival="24078.00" arrivalPos="1.44" duration="17.00" routeLength="27.41" timeLoss="-0.57" maxSpeed="1.56"/>
    </personinfo>
    <personinfo id="p375" depart="23645.88" type="DEFAULT_PEDTYPE">
        <walk depart="23646.00" departPos="15.76" arrival="23676.00" arrivalPos="51.49" duration="30.00" routeLength="36.43" timeLoss="4.34" maxSpeed="1.42"/>
        <ride waitingTime="62.00" vehicle="taxi137" depart="23738.00" arrival="24061.00" arrivalPos="14.90" duration="323.00" routeLength="2821.34" timeLoss="49.09"/>
        <walk depart="24061.00" departPos="14.90" arrival="24080.00" arrivalPos="6.30" duration="19.00" routeLength="32.27" timeLoss="-3.73" maxSpeed="1.42"/>
    </personinfo>
    <personinfo id="w491" depart="22673.38" type="DEFAULT_PEDTYPE">
        <walk depart="22674.00" departPos="110.70" arrival="23383.00" arrivalPos="15.00" duration="709.00" routeLength="853.38" timeLoss="36.49" maxSpeed="1.27"/>
        <ride waitingTime="213.00" vehicle="taxi83" depart="23596.00" arrival="24127.00" arrivalPos="237.79" duration="531.00" routeLength="4794.05" timeLoss="74.24"/>
        <walk depart="24127.00" departPos="237.79" arrival="24129.00" arrivalPos="2.61" duration="2.00" routeLength="14.83" timeLoss="-9.69" maxSpeed="1.27"/>
    </personinfo>
    <personinfo id="w214" depart="21815.86" type="DEFAULT_PEDTYPE">
        <walk depart="21816.00" departPos="805.38" arrival="22885.00" arrivalPos="26.78" duration="1069.00" routeLength="1439.59" timeLoss="100.44" maxSpeed="1.49"/>
        <ride waitingTime="244.00" vehicle="taxi344" depart="23129.00" arrival="23824.00" arrivalPos="25.00" duration="695.00" routeLength="12947.80" timeLoss="55.79"/>
        <walk depart="23824.00" departPos="25.00" arrival="24151.00" arrivalPos="29.19" duration="327.00" routeLength="461.09" timeLoss="16.78" maxSpeed="1.49"/>
    </personinfo>
    <personinfo id="w591" depart="22867.39" type="DEFAULT_PEDTYPE">
        <walk depart="22868.00" departPos="15.92" arrival="22916.00" arrivalPos="5.29" duration="48.00" routeLength="93.13" timeLoss="-17.14" maxSpeed="1.43"/>
        <ride waitingTime="165.00" vehicle="taxi171" depart="23081.00" arrival="23760.00" arrivalPos="25.00" duration="679.00" routeLength="6230.78" timeLoss="111.79"/>
        <walk depart="23760.00" departPos="25.00" arrival="24155.00" arrivalPos="1.37" duration="395.00" routeLength="544.59" timeLoss="14.07" maxSpeed="1.43"/>
    </personinfo>
    <personinfo id="w295" depart="23334.61" type="DEFAULT_PEDTYPE">
        <walk depart="23335.00" departPos="107.17" arrival="23351.00" arrivalPos="7.50" duration="16.00" routeLength="18.23" timeLoss="2.49" maxSpeed="1.35"/>
        <ride waitingTime="497.00" vehicle="taxi140" depart="23848.00" arrival="24024.00" arrivalPos="14.08" duration="176.00" routeLength="3477.55" timeLoss="17.31"/>
        <walk depart="24024.00" departPos="14.08" arrival="24170.00" arrivalPos="12.62" duration="146.00" routeLength="203.79" timeLoss="-5.01" maxSpeed="1.35"/>
    </personinfo>
    <personinfo id="w414" depart="23214.82" type="DEFAULT_PEDTYPE">
        <walk depart="23215.00" departPos="35.47" arrival="23293.00" arrivalPos="7.50" duration="78.00" routeLength="89.62" timeLoss="-1.61" maxSpeed="1.13"/>
        <ride waitingTime="510.00" vehicle="taxi352" depart="23803.00" arrival="23995.00" arrivalPos="46.63" duration="192.00" routeLength="1861.75" timeLoss="26.03"/>
        <walk depart="23995.00" departPos="46.63" arrival="24223.00" arrivalPos="10.88" duration="228.00" routeLength="293.02" timeLoss="-32.29" maxSpeed="1.13"/>
    </personinfo>
    <personinfo id="w334" depart="23382.15" type="DEFAULT_PEDTYPE">
        <walk depart="23383.00" departPos="29.62" arrival="23420.00" arrivalPos="5.29" duration="37.00" routeLength="83.30" timeLoss="-23.19" maxSpeed="1.38"/>
        <ride waitingTime="573.00" vehicle="taxi18" depart="23993.00" arrival="24159.00" arrivalPos="58.99" duration="166.00" routeLength="2385.52" timeLoss="31.71"/>
        <walk depart="24159.00" departPos="58.99" arrival="24247.00" arrivalPos="34.54" duration="88.00" routeLength="143.10" timeLoss="-15.41" maxSpeed="1.38"/>
    </personinfo>
    <personinfo id="w349" depart="23123.81" type="DEFAULT_PEDTYPE">
        <walk depart="23124.00" departPos="5.60" arrival="23294.00" arrivalPos="14.90" duration="170.00" routeLength="241.85" timeLoss="-7.39" maxSpeed="1.36"/>
        <ride waitingTime="587.00" vehicle="taxi89" depart="23881.00" arrival="24111.00" arrivalPos="73.53" duration="230.00" routeLength="2866.57" timeLoss="32.33"/>
        <walk depart="24111.00" departPos="73.53" arrival="24264.00" arrivalPos="5.04" duration="153.00" routeLength="196.81" timeLoss="8.64" maxSpeed="1.36"/>
    </personinfo>
    <personinfo id="w914" depart="23624.21" type="DEFAULT_PEDTYPE">
        <walk depart="23625.00" departPos="18.39" arrival="23628.00" arrivalPos="15.00" duration="3.00" routeLength="3.39" timeLoss="0.55" maxSpeed="1.38"/>
        <ride waitingTime="55.00" vehicle="taxi153" depart="23683.00" arrival="24203.00" arrivalPos="51.36" duration="520.00" routeLength="5320.04" timeLoss="76.65"/>
        <walk depart="24203.00" departPos="51.36" arrival="24267.00" arrivalPos="1.63" duration="64.00" routeLength="107.63" timeLoss="-13.78" maxSpeed="1.38"/>
    </personinfo>
    <personinfo id="s308" depart="23909.53" type="DEFAULT_PEDTYPE">
        <walk depart="23910.00" departPos="13.97" arrival="23971.00" arrivalPos="26.60" duration="61.00" routeLength="107.39" timeLoss="-11.77" maxSpeed="1.48"/>
        <ride waitingTime="125.00" vehicle="taxi0" depart="24096.00" arrival="24260.00" arrivalPos="18.00" duration="164.00" routeLength="1510.31" timeLoss="37.61"/>
        <walk depart="24260.00" departPos="18.00" arrival="24267.00" arrivalPos="26.45" duration="7.00" routeLength="8.45" timeLoss="1.27" maxSpeed="1.48"/>
    </personinfo>
    <personinfo id="w549" depart="23492.12" type="DEFAULT_PEDTYPE">
        <walk depart="23493.00" departPos="18.98" arrival="23695.00" arrivalPos="553.86" duration="202.00" routeLength="216.14" timeLoss="24.23" maxSpeed="1.22"/>
        <ride waitingTime="295.00" vehicle="taxi393" depart="23990.00" arrival="24133.00" arrivalPos="9.87" duration="143.00" routeLength="1946.54" timeLoss="26.84"/>