<?xml version="1.0" encoding="UTF-8"?>

<!-- generated by Eclipse SUMO sumo Version 1.12.0
<configuration xmlns:xsi="http://www.w3.org/2001/XMLSchema-instance" xsi:noNamespaceSchemaLocation="http://sumo.dlr.de/xsd/sumoConfiguration.xsd">

    <input>
        <net-file value="D:\Dokumente\sumo\maloja\simple.net.xml"/>
        <route-files value="D:\Dokumente\sumo\maloja\09_daytrips\persontrips_maloja_daytrips_resolved_offseason_taxi.rou.xml,D:\Dokumente\sumo\maloja\11_hotel\persontrips_maloja_hotel_resolved_offseason_taxi.rou.xml,D:\Dokumente\sumo\maloja\12_non_hotel\persontrips_maloja_non_hotel_resolved_offseason_taxi.rou.xml,D:\Dokumente\sumo\maloja\13_private\persontrips_maloja_private_resolved_offseason_taxi.rou.xml"/>
        <additional-files value="D:\Dokumente\sumo\maloja\03_bus\virtualstop.add.xml,D:\Dokumente\sumo\maloja\03_bus\03_November\gtfs_pt_stops.add.xml,D:\Dokumente\sumo\maloja\15_drt_fleet\drt_fleet.xml,D:\Dokumente\sumo\maloja\15_drt_fleet\drt_parking.add.xml,D:\Dokumente\sumo\maloja\15_drt_fleet\drt_parking_rerouter.add.xml"/>
    </input>

    <output>
        <tripinfo-output value="tripinfos_drt.xml"/>
        <tripinfo-output.write-unfinished value="true"/>
        <stop-output value="stopinfos_drt.xml"/>
        <statistic-output value="stats_drt.xml"/>
    </output>

    <time>
        <begin value="20520"/>
        <end value="77400"/>
    </time>

    <routing>
        <routing-algorithm value="CH"/>
        <persontrip.transfer.taxi-walk value="ptStops"/>
        <persontrip.transfer.walk-taxi value="ptStops"/>
    </routing>

    <report>
        <verbose value="true"/>
        <log value="simulation.log.txt"/>
        <error-log value="sumo_error.log"/>
        <duration-log.statistics value="true"/>
    </report>

    <taxi_device>
        <device.taxi.dispatch-algorithm value="traci"/>
    </taxi_device>

    <traci_server>
        <remote-port value="49459"/>
    </traci_server>

</configuration>
-->

<tripinfos xmlns:xsi="http://www.w3.org/2001/XMLSchema-instance" xsi:noNamespaceSchemaLocation="http://sumo.dlr.de/xsd/tripinfo_file.xsd">
    <personinfo id="d128" depart="28979.52" type="DEFAULT_PEDTYPE">
        <walk depart="28980.00" departPos="19.31" arrival="28987.00" arrivalPos="10.00" duration="7.00" routeLength="9.31" timeLoss="1.14" maxSpeed="1.59"/>
        <ride waitingTime="29.00" vehicle="taxi81" depart="29016.00" arrival="29203.00" arrivalPos="45.55" duration="187.00" routeLength="2626.38" timeLoss="28.00"/>
        <walk depart="29203.00" departPos="45.55" arrival="29577.00" arrivalPos="105.14" duration="374.00" routeLength="553.33" timeLoss="25.71" maxSpeed="1.59"/>
    </personinfo>
    <personinfo id="d92" depart="29122.82" type="DEFAULT_PEDTYPE">
        <walk depart="29123.00" departPos="10.91" arrival="29127.00" arrivalPos="15.00" duration="4.00" routeLength="4.09" timeLoss="0.96" maxSpeed="1.34"/>
        <ride waitingTime="43.00" vehicle="taxi36" depart="29170.00" arrival="29576.00" arrivalPos="13.24" duration="406.00" routeLength="6663.45" timeLoss="43.01"/>
        <walk depart="29576.00" departPos="13.24" arrival="29617.00" arrivalPos="0.67" duration="41.00" routeLength="47.62" timeLoss="5.58" maxSpeed="1.34"/>
    </personinfo>
    <personinfo id="d89" depart="29197.95" type="DEFAULT_PEDTYPE">
        <walk depart="29198.00" departPos="16.95" arrival="29200.00" arrivalPos="15.00" duration="2.00" routeLength="1.95" timeLoss="0.32" maxSpeed="1.16"/>
        <ride waitingTime="56.00" vehicle="taxi45" depart="29256.00" arrival="29652.00" arrivalPos="524.38" duration="396.00" routeLength="7115.34" timeLoss="45.86"/>
        <walk depart="29652.00" departPos="524.38" arrival="29686.00" arrivalPos="23.98" duration="34.00" routeLength="38.11" timeLoss="1.19" maxSpeed="1.16"/>
    </personinfo>
    <personinfo id="th83" depart="29197.95" type="DEFAULT_PEDTYPE">
        <walk depart="29198.00" departPos="40.87" arrival="29346.00" arrivalPos="23.94" duration="148.00" routeLength="223.57" timeLoss="-2.06" maxSpeed="1.49"/>
        <ride waitingTime="74.00" vehicle="taxi20" depart="29420.00" arrival="29880.00" arrivalPos="15.00" duration="460.00" routeLength="8604.64" timeLoss="50.03"/>
        <walk depart="29880.00" departPos="15.00" arrival="29893.00" arrivalPos="1.99" duration="13.00" routeLength="20.20" timeLoss="-0.56" maxSpeed="1.49"/>
    </personinfo>
    <personinfo id="tp83" depart="29197.95" type="DEFAULT_PEDTYPE">
        <walk depart="29198.00" departPos="99.19" arrival="29304.00" arrivalPos="23.94" duration="106.00" routeLength="165.26" timeLoss="-5.74" maxSpeed="1.48"/>
        <ride waitingTime="73.00" vehicle="taxi20" depart="29377.00" arrival="29880.00" arrivalPos="15.00" duration="503.00" routeLength="8976.22" timeLoss="64.33"/>
        <walk depart="29880.00" departPos="15.00" arrival="29894.00" arrivalPos="1.99" duration="14.00" routeLength="20.20" timeLoss="0.34" maxSpeed="1.48"/>
    </personinfo>
    <personinfo id="th122" depart="28979.52" type="DEFAULT_PEDTYPE">
        <walk depart="28980.00" departPos="14.78" arrival="28984.00" arrivalPos="18.71" duration="4.00" routeLength="3.93" timeLoss="1.02" maxSpeed="1.32"/>
        <ride waitingTime="62.00" vehicle="taxi91" depart="29046.00" arrival="29453.00" arrivalPos="45.55" duration="407.00" routeLength="3973.02" timeLoss="44.49"/>
        <walk depart="29453.00" departPos="45.55" arrival="29906.00" arrivalPos="105.14" duration="453.00" routeLength="553.33" timeLoss="33.07" maxSpeed="1.32"/>
    </personinfo>
    <personinfo id="tp122" depart="28979.52" type="DEFAULT_PEDTYPE">
        <walk depart="28980.00" departPos="0.56" arrival="28995.00" arrivalPos="18.71" duration="15.00" routeLength="18.15" timeLoss="1.63" maxSpeed="1.36"/>
        <ride waitingTime="51.00" vehicle="taxi91" depart="29046.00" arrival="29453.00" arrivalPos="45.55" duration="407.00" routeLength="3973.02" timeLoss="44.49"/>
        <walk depart="29453.00" departPos="45.55" arrival="29906.00" arrivalPos="105.14" duration="453.00" routeLength="553.33" timeLoss="45.41" maxSpeed="1.36"/>
    </personinfo>
    <personinfo id="d56" depart="28921.78" type="DEFAULT_PEDTYPE">
        <walk depart="28922.00" departPos="0.38" arrival="28936.00" arrivalPos="15.00" duration="14.00" routeLength="14.62" timeLoss="1.77" maxSpeed="1.20"/>
        <ride waitingTime="54.00" vehicle="taxi90" depart="28990.00" arrival="29585.00" arrivalPos="15.00" duration="595.00" routeLength="10570.68" timeLoss="71.51"/>
        <walk depart="29585.00" departPos="15.00" arrival="29949.00" arrivalPos="62.06" duration="364.00" routeLength="452.97" timeLoss="-14.87" maxSpeed="1.20"/>
    </personinfo>
    <personinfo id="tn81" depart="29197.95" type="DEFAULT_PEDTYPE">
        <walk depart="29198.00" departPos="6.21" arrival="29379.00" arrivalPos="23.94" duration="181.00" routeLength="258.23" timeLoss="1.27" maxSpeed="1.44"/>
        <ride waitingTime="377.00" vehicle="taxi91" depart="29756.00" arrival="29900.00" arrivalPos="25.00" duration="144.00" routeLength="1699.73" timeLoss="23.74"/>
        <walk depart="29900.00" departPos="25.00" arrival="30010.00" arrivalPos="0.24" duration="110.00" routeLength="143.26" timeLoss="10.29" maxSpeed="1.44"/>
    </personinfo>
    <personinfo id="tn85" depart="28889.60" type="DEFAULT_PEDTYPE">
        <walk depart="28890.00" departPos="4.46" arrival="29266.00" arrivalPos="553.86" duration="376.00" routeLength="529.27" timeLoss="42.33" maxSpeed="1.59"/>
        <ride waitingTime="566.00" vehicle="taxi36" depart="29832.00" arrival="30062.00" arrivalPos="25.00" duration="230.00" routeLength="3011.61" timeLoss="34.81"/>
        <walk depart="30062.00" departPos="25.00" arrival="30063.00" arrivalPos="25.50" duration="1.00" routeLength="0.50" timeLoss="0.69" maxSpeed="1.59"/>
    </personinfo>
    <personinfo id="d136" depart="29903.27" type="DEFAULT_PEDTYPE">
        <walk depart="29904.00" departPos="4.15" arrival="29912.00" arrivalPos="15.00" duration="8.00" routeLength="10.85" timeLoss="1.51" maxSpeed="1.67"/>
        <ride waitingTime="189.00" vehicle="taxi36" depart="30101.00" arrival="30378.00" arrivalPos="25.48" duration="277.00" routeLength="3577.61" timeLoss="41.96"/>
        <walk depart="30378.00" departPos="25.48" arrival="30570.00" arrivalPos="1.56" duration="192.00" routeLength="307.54" timeLoss="8.05" maxSpeed="1.67"/>
    </personinfo>
    <personinfo id="th138" depart="30205.95" type="DEFAULT_PEDTYPE">
        <walk depart="30206.00" departPos="0.09" arrival="30211.00" arrivalPos="5.29" duration="5.00" routeLength="25.30" timeLoss="-12.88" maxSpeed="1.41"/>
        <ride waitingTime="128.00" vehicle="taxi29" depart="30339.00" arrival="30640.00" arrivalPos="20.00" duration="301.00" routeLength="4379.33" timeLoss="48.52"/>
        <walk depart="30640.00" departPos="20.00" arrival="30641.00" arrivalPos="20.38" duration="1.00" routeLength="0.38" timeLoss="0.73" maxSpeed="1.41"/>
    </personinfo>
    <personinfo id="tp138" depart="30205.95" type="DEFAULT_PEDTYPE">
        <walk depart="30206.00" departPos="0.25" arrival="30212.00" arrivalPos="5.29" duration="6.00" routeLength="25.46" timeLoss="-14.73" maxSpeed="1.23"/>
        <ride waitingTime="127.00" vehicle="taxi29" depart="30339.00" arrival="30640.00" arrivalPos="20.00" duration="301.00" routeLength="4379.33" timeLoss="48.52"/>
        <walk depart="30640.00" departPos="20.00" arrival="30641.00" arrivalPos="20.38" duration="1.00" routeLength="0.38" timeLoss="0.69" maxSpeed="1.23"/>
    </personinfo>
    <personinfo id="tn32" depart="28958.69" type="DEFAULT_PEDTYPE">
        <walk depart="28959.00" departPos="62.68" arrival="28994.00" arrivalPos="15.53" duration="35.00" routeLength="47.15" timeLoss="3.45" maxSpeed="1.49"/>
        <ride waitingTime="505.00" vehicle="taxi81" depart="29499.00" arrival="30769.00" arrivalPos="6.18" duration="1270.00" routeLength="24310.70" timeLoss="78.69"/>
        <walk depart="30769.00" departPos="6.18" arrival="30791.00" arrivalPos="19.95" duration="22.00" routeLength="46.80" timeLoss="-9.32" maxSpeed="1.49"/>
    </personinfo>
    <personinfo id="tp129" depart="29903.27" type="DEFAULT_PEDTYPE">
        <walk depart="29904.00" departPos="18.33" arrival="30230.00" arrivalPos="184.55" duration="326.00" routeLength="454.77" timeLoss="36.93" maxSpeed="1.57"/>
        <ride waitingTime="428.00" vehicle="taxi17" depart="30658.00" arrival="30848.00" arrivalPos="25.00" duration="190.00" routeLength="2642.55" timeLoss="29.14"/>
        <walk depart="30848.00" departPos="25.00" arrival="30865.00" arrivalPos="1.24" duration="17.00" routeLength="23.76" timeLoss="1.90" maxSpeed="1.57"/>
    </personinfo>
    <personinfo id="th129" depart="29903.27" type="DEFAULT_PEDTYPE">
        <walk depart="29904.00" departPos="19.90" arrival="30279.00" arrivalPos="184.55" duration="375.00" routeLength="456.34" timeLoss="38.50" maxSpeed="1.36"/>
        <ride waitingTime="409.00" vehicle="taxi26" depart="30688.00" arrival="30877.00" arrivalPos="25.00" duration="189.00" routeLength="2643.35" timeLoss="25.97"/>
        <walk depart="30877.00" departPos="25.00" arrival="30897.00" arrivalPos="1.24" duration="20.00" routeLength="23.76" timeLoss="2.48" maxSpeed="1.36"/>
    </personinfo>
    <personinfo id="d145" depart="30205.95" type="DEFAULT_PEDTYPE">
        <walk depart="30206.00" departPos="23.77" arrival="30213.00" arrivalPos="15.00" duration="7.00" routeLength="8.77" timeLoss="1.50" maxSpeed="1.59"/>
        <ride waitingTime="401.00" vehicle="taxi29" depart="30614.00" arrival="30837.00" arrivalPos="53.58" duration="223.00" routeLength="1742.93" timeLoss="35.03"/>
        <walk depart="30837.00" departPos="53.58" arrival="30915.00" arrivalPos="18.64" duration="78.00" routeLength="43.59" timeLoss="50.66" maxSpeed="1.59"/>
    </personinfo>
    <personinfo id="d66" depart="30056.12" type="DEFAULT_PEDTYPE">
        <walk depart="30057.00" departPos="15.33" arrival="30058.00" arrivalPos="15.00" duration="1.00" routeLength="0.33" timeLoss="0.79" maxSpeed="1.58"/>
        <ride waitingTime="71.00" vehicle="taxi36" depart="30129.00" arrival="30922.00" arrivalPos="34.99" duration="793.00" routeLength="11755.52" timeLoss="87.52"/>
        <walk depart="30922.00" departPos="34.99" arrival="30958.00" arrivalPos="14.16" duration="36.00" routeLength="52.37" timeLoss="2.94" maxSpeed="1.58"/>
    </personinfo>
    <personinfo id="tp26" depart="29784.39" type="DEFAULT_PEDTYPE">
        <walk depart="29785.00" departPos="83.54" arrival="30051.00" arrivalPos="2.55" duration="266.00" routeLength="367.78" timeLoss="33.54" maxSpeed="1.58"/>
        <ride waitingTime="47.00" vehicle="taxi26" depart="30098.00" arrival="30385.00" arrivalPos="18.17" duration="287.00" routeLength="4471.12" timeLoss="34.47"/>
        <walk depart="30385.00" departPos="18.17" arrival="31060.00" arrivalPos="36.60" duration="675.00" routeLength="938.96" timeLoss="81.52" maxSpeed="1.58"/>
    </personinfo>
    <personinfo id="tn64" depart="29217.29" type="DEFAULT_PEDTYPE">
        <walk depart="29218.00" departPos="4.42" arrival="29692.00" arrivalPos="18.71" duration="474.00" routeLength="707.38" timeLoss="16.90" maxSpeed="1.55"/>
        <ride waitingTime="42.00" vehicle="taxi82" depart="29734.00" arrival="30593.00" arrivalPos="5.00" duration="859.00" routeLength="12743.90" timeLoss="101.15"/>
        <walk depart="30593.00" departPos="5.00" arrival="31077.00" arrivalPos="108.49" duration="484.00" routeLength="703.52" timeLoss="29.39" maxSpeed="1.55"/>
    </personinfo>
    <personinfo id="d115" depart="30649.67" type="DEFAULT_PEDTYPE">
        <walk depart="30650.00" departPos="15.98" arrival="30651.00" arrivalPos="15.00" duration="1.00" routeLength="0.98" timeLoss="0.35" maxSpeed="1.51"/>
        <ride waitingTime="283.00" vehicle="taxi17" depart="30934.00" arrival="31062.00" arrivalPos="17.26" duration="128.00" routeLength="1533.40" timeLoss="23.74"/>
        <walk depart="31062.00" departPos="17.26" arrival="31110.00" arrivalPos="27.61" duration="48.00" routeLength="78.11" timeLoss="-3.73" maxSpeed="1.51"/>
    </personinfo>
    <personinfo id="th26" depart="29784.39" type="DEFAULT_PEDTYPE">
        <walk depart="29785.00" departPos="9.58" arrival="30032.00" arrivalPos="2.55" duration="247.00" routeLength="293.83" timeLoss="18.38" maxSpeed="1.29"/>
        <ride waitingTime="35.00" vehicle="taxi17" depart="30067.00" arrival="30354.00" arrivalPos="18.17" duration="287.00" routeLength="4471.21" timeLoss="37.45"/>
        <walk depart="30354.00" departPos="18.17" arrival="31121.00" arrivalPos="36.60" duration="767.00" routeLength="938.96" timeLoss="36.42" maxSpeed="1.29"/>
    </personinfo>
    <personinfo id="tn26" depart="29784.39" type="DEFAULT_PEDTYPE">
        <walk depart="29785.00" departPos="49.31" arrival="30049.00" arrivalPos="2.55" duration="264.00" routeLength="333.56" timeLoss="22.84" maxSpeed="1.38"/>
        <ride waitingTime="49.00" vehicle="taxi26" depart="30098.00" arrival="30385.00" arrivalPos="18.17" duration="287.00" routeLength="4471.12" timeLoss="34.47"/>
        <walk depart="30385.00" departPos="18.17" arrival="31121.00" arrivalPos="36.60" duration="736.00" routeLength="938.96" timeLoss="57.14" maxSpeed="1.38"/>
    </personinfo>
    <personinfo id="tp32" depart="28958.69" type="DEFAULT_PEDTYPE">
        <walk depart="28959.00" departPos="36.78" arrival="28975.00" arrivalPos="15.53" duration="16.00" routeLength="21.25" timeLoss="2.06" maxSpeed="1.52"/>
        <ride waitingTime="924.00" vehicle="taxi58" depart="29899.00" arrival="31154.00" arrivalPos="6.18" duration="1255.00" routeLength="24309.90" timeLoss="78.06"/>
        <walk depart="31154.00" departPos="6.18" arrival="31171.00" arrivalPos="24.95" duration="17.00" routeLength="41.80" timeLoss="-10.43" maxSpeed="1.52"/>
    </personinfo>
    <personinfo id="th32" depart="28958.69" type="DEFAULT_PEDTYPE">
        <walk depart="28959.00" departPos="3.09" arrival="28971.00" arrivalPos="15.53" duration="12.00" routeLength="12.44" timeLoss="2.12" maxSpeed="1.26"/>
        <ride waitingTime="947.00" vehicle="taxi90" depart="29918.00" arrival="31175.00" arrivalPos="6.18" duration="1257.00" routeLength="24309.10" timeLoss="76.41"/>
        <walk depart="31175.00" departPos="6.18" arrival="31196.00" arrivalPos="24.95" duration="21.00" routeLength="41.80" timeLoss="-12.20" maxSpeed="1.26"/>
    </personinfo>
    <personinfo id="tn68" depart="30891.43" type="DEFAULT_PEDTYPE">
        <walk depart="30892.00" departPos="0.10" arrival="30900.00" arrivalPos="6.12" duration="8.00" routeLength="8.89" timeLoss="1.29" maxSpeed="1.33"/>
        <ride waitingTime="175.00" vehicle="taxi92" depart="31075.00" arrival="31237.00" arrivalPos="109.72" duration="162.00" routeLength="2595.24" timeLoss="28.16"/>
        <walk depart="31237.00" departPos="109.72" arrival="31287.00" arrivalPos="0.15" duration="50.00" routeLength="56.08" timeLoss="7.68" maxSpeed="1.33"/>
    </personinfo>
    <personinfo id="tn48" depart="30772.95" type="DEFAULT_PEDTYPE">
        <walk depart="30773.00" departPos="5.97" arrival="30827.00" arrivalPos="10.67" duration="54.00" routeLength="61.04" timeLoss="7.58" maxSpeed="1.31"/>
        <ride waitingTime="103.00" vehicle="taxi45" depart="30930.00" arrival="31360.00" arrivalPos="20.00" duration="430.00" routeLength="7102.71" timeLoss="60.13"/>
        <walk depart="31360.00" departPos="20.00" arrival="31377.00" arrivalPos="1.20" duration="17.00" routeLength="18.80" timeLoss="2.70" maxSpeed="1.31"/>
    </personinfo>
    <personinfo id="th109" depart="30649.67" type="DEFAULT_PEDTYPE">
        <walk depart="30650.00" departPos="7.74" arrival="30885.00" arrivalPos="5.29" duration="235.00" routeLength="338.93" timeLoss="5.15" maxSpeed="1.47"/>
        <ride waitingTime="182.00" vehicle="taxi92" depart="31067.00" arrival="31414.00" arrivalPos="15.00" duration="347.00" routeLength="3850.12" timeLoss="49.03"/>
        <walk depart="31414.00" departPos="15.00" arrival="31460.00" arrivalPos="14.92" duration="46.00" routeLength="63.55" timeLoss="2.90" maxSpeed="1.47"/>
    </personinfo>
    <personinfo id="tp109" depart="30649.67" type="DEFAULT_PEDTYPE">
        <walk depart="30650.00" departPos="9.74" arrival="30884.00" arrivalPos="5.29" duration="234.00" routeLength="336.93" timeLoss="-4.92" maxSpeed="1.41"/>
        <ride waitingTime="430.00" vehicle="taxi17" depart="31314.00" arrival="31573.00" arrivalPos="15.00" duration="259.00" routeLength="3810.80" timeLoss="40.72"/>
        <walk depart="31573.00" departPos="15.00" arrival="31621.00" arrivalPos="14.92" duration="48.00" routeLength="63.55" timeLoss="2.93" maxSpeed="1.41"/>
    </personinfo>
    <personinfo id="d57" depart="30960.73" type="DEFAULT_PEDTYPE">
        <walk depart="30961.00" departPos="26.12" arrival="30972.00" arrivalPos="15.00" duration="11.00" routeLength="11.12" timeLoss="1.63" maxSpeed="1.19"/>
        <ride waitingTime="60.00" vehicle="taxi72" depart="31032.00" arrival="31671.00" arrivalPos="15.00" duration="639.00" routeLength="10740.04" timeLoss="81.29"/>
        <walk depart="31671.00" departPos="15.00" arrival="31677.00" arrivalPos="21.47" duration="6.00" routeLength="6.47" timeLoss="0.55" maxSpeed="1.19"/>
    </personinfo>
    <personinfo id="tp65" depart="29217.29" type="DEFAULT_PEDTYPE">
        <walk depart="29218.00" departPos="3.99" arrival="29702.00" arrivalPos="18.71" duration="484.00" routeLength="707.82" timeLoss="17.58" maxSpeed="1.52"/>
        <ride waitingTime="64.00" vehicle="taxi82" depart="29766.00" arrival="31163.00" arrivalPos="98.33" duration="1397.00" routeLength="22078.73" timeLoss="134.05"/>
        <walk depart="31163.00" departPos="98.33" arrival="31840.00" arrivalPos="16.12" duration="677.00" routeLength="934.66" timeLoss="61.10" maxSpeed="1.52"/>
    </personinfo>
    <personinfo id="th156" depart="31417.42" type="DEFAULT_PEDTYPE">
        <walk depart="31418.00" departPos="6.37" arrival="31430.00" arrivalPos="7.50" duration="12.00" routeLength="24.76" timeLoss="-5.87" maxSpeed="1.39"/>
        <ride waitingTime="267.00" vehicle="taxi45" depart="31697.00" arrival="31847.00" arrivalPos="25.00" duration="150.00" routeLength="1496.84" timeLoss="26.36"/>
        <walk depart="31847.00" departPos="25.00" arrival="31857.00" arrivalPos="13.22" duration="10.00" routeLength="11.78" timeLoss="1.50" maxSpeed="1.39"/>
    </personinfo>
    <personinfo id="tp156" depart="31417.42" type="DEFAULT_PEDTYPE">
        <walk depart="31418.00" departPos="23.66" arrival="31443.00" arrivalPos="7.50" duration="25.00" routeLength="42.04" timeLoss="-4.42" maxSpeed="1.43"/>
        <ride waitingTime="420.00" vehicle="taxi29" depart="31863.00" arrival="32020.00" arrivalPos="25.00" duration="157.00" routeLength="1497.64" timeLoss="23.55"/>
        <walk depart="32020.00" departPos="25.00" arrival="32030.00" arrivalPos="13.22" duration="10.00" routeLength="11.78" timeLoss="1.76" maxSpeed="1.43"/>
    </personinfo>
    <personinfo id="th153" depart="30962.87" type="DEFAULT_PEDTYPE">
        <walk depart="30963.00" departPos="3.64" arrival="31457.00" arrivalPos="184.55" duration="494.00" routeLength="645.38" timeLoss="31.50" maxSpeed="1.40"/>
        <ride waitingTime="200.00" vehicle="taxi29" depart="31657.00" arrival="32020.00" arrivalPos="25.00" duration="363.00" routeLength="4094.21" timeLoss="68.86"/>
        <walk depart="32020.00" departPos="25.00" arrival="32040.00" arrivalPos="0.17" duration="20.00" routeLength="24.83" timeLoss="2.21" maxSpeed="1.40"/>
    </personinfo>
    <personinfo id="tp153" depart="30962.87" type="DEFAULT_PEDTYPE">
        <walk depart="30963.00" departPos="114.61" arrival="31502.00" arrivalPos="184.55" duration="539.00" routeLength="756.36" timeLoss="39.22" maxSpeed="1.51"/>
        <ride waitingTime="209.00" vehicle="taxi29" depart="31711.00" arrival="32020.00" arrivalPos="25.00" duration="309.00" routeLength="3519.90" timeLoss="44.05"/>
        <walk depart="32020.00" departPos="25.00" arrival="32040.00" arrivalPos="0.17" duration="20.00" routeLength="24.83" timeLoss="3.59" maxSpeed="1.51"/>
    </personinfo>
    <personinfo id="d141" depart="31854.41" type="DEFAULT_PEDTYPE">
        <walk depart="31855.00" departPos="12.01" arrival="31857.00" arrivalPos="10.00" duration="2.00" routeLength="2.01" timeLoss="0.61" maxSpeed="1.45"/>
        <ride waitingTime="39.00" vehicle="taxi9" depart="31896.00" arrival="32057.00" arrivalPos="33.59" duration="161.00" routeLength="1872.25" timeLoss="25.08"/>
        <walk depart="32057.00" departPos="33.59" arrival="32113.00" arrivalPos="36.77" duration="56.00" routeLength="76.07" timeLoss="3.67" maxSpeed="1.45"/>
    </personinfo>
    <personinfo id="th89" depart="31346.34" type="DEFAULT_PEDTYPE">
        <walk depart="31347.00" departPos="37.20" arrival="31439.00" arrivalPos="9.76" duration="92.00" routeLength="141.64" timeLoss="4.41" maxSpeed="1.62"/>
        <ride waitingTime="198.00" vehicle="taxi83" depart="31637.00" arrival="32176.00" arrivalPos="34.99" duration="539.00" routeLength="9566.43" timeLoss="60.92"/>
        <walk depart="32176.00" departPos="34.99" arrival="32210.00" arrivalPos="12.82" duration="34.00" routeLength="51.03" timeLoss="2.44" maxSpeed="1.62"/>
    </personinfo>
    <personinfo id="tp89" depart="31346.34" type="DEFAULT_PEDTYPE">
        <walk depart="31347.00" departPos="51.35" arrival="31437.00" arrivalPos="9.76" duration="90.00" routeLength="127.49" timeLoss="2.03" maxSpeed="1.45"/>
        <ride waitingTime="169.00" vehicle="taxi83" depart="31606.00" arrival="32176.00" arrivalPos="34.99" duration="570.00" routeLength="9725.62" timeLoss="78.02"/>
        <walk depart="32176.00" departPos="34.99" arrival="32213.00" arrivalPos="12.82" duration="37.00" routeLength="51.03" timeLoss="1.79" maxSpeed="1.45"/>
    </personinfo>
    <personinfo id="tp146" depart="32072.04" type="DEFAULT_PEDTYPE">
        <walk depart="32073.00" departPos="79.71" arrival="32129.00" arrivalPos="7.50" duration="56.00" routeLength="72.21" timeLoss="5.12" maxSpeed="1.42"/>
        <ride waitingTime="150.00" vehicle="taxi9" depart="32279.00" arrival="32502.00" arrivalPos="25.00" duration="223.00" routeLength="2294.51" timeLoss="27.43"/>
        <walk depart="32502.00" departPos="25.00" arrival="32512.00" arrivalPos="12.94" duration="10.00" routeLength="12.06" timeLoss="1.50" maxSpeed="1.42"/>
    </personinfo>
    <personinfo id="d153" depart="32072.04" type="DEFAULT_PEDTYPE">
        <walk depart="32073.00" departPos="19.13" arrival="32076.00" arrivalPos="15.00" duration="3.00" routeLength="4.13" timeLoss="0.25" maxSpeed="1.50"/>
        <ride waitingTime="31.00" vehicle="taxi63" depart="32107.00" arrival="32339.00" arrivalPos="73.53" duration="232.00" routeLength="3068.94" timeLoss="35.88"/>
        <walk depart="32339.00" departPos="73.53" arrival="32671.00" arrivalPos="62.03" duration="332.00" routeLength="460.44" timeLoss="24.56" maxSpeed="1.50"/>
    </personinfo>
    <personinfo id="d91" depart="32165.36" type="DEFAULT_PEDTYPE">
        <walk depart="32166.00" departPos="11.39" arrival="32169.00" arrivalPos="15.00" duration="3.00" routeLength="3.61" timeLoss="0.80" maxSpeed="1.64"/>
        <ride waitingTime="29.00" vehicle="taxi54" depart="32198.00" arrival="32606.00" arrivalPos="23.03" duration="408.00" routeLength="6519.18" timeLoss="43.20"/>
        <walk depart="32606.00" departPos="23.03" arrival="32699.00" arrivalPos="33.80" duration="93.00" routeLength="138.69" timeLoss="8.60" maxSpeed="1.64"/>
    </personinfo>
    <personinfo id="d144" depart="32585.92" type="DEFAULT_PEDTYPE">
        <walk depart="32586.00" departPos="28.01" arrival="32596.00" arrivalPos="15.00" duration="10.00" routeLength="13.01" timeLoss="1.74" maxSpeed="1.58"/>
        <ride waitingTime="56.00" vehicle="taxi29" depart="32652.00" arrival="32795.00" arrivalPos="53.58" duration="143.00" routeLength="1641.19" timeLoss="24.70"/>
        <walk depart="32795.00" departPos="53.58" arrival="32836.00" arrivalPos="70.72" duration="41.00" routeLength="61.37" timeLoss="2.04" maxSpeed="1.58"/>
    </personinfo>
    <personinfo id="tp63" depart="30915.84" type="DEFAULT_PEDTYPE">
        <walk depart="30916.00" departPos="43.42" arrival="31347.00" arrivalPos="87.83" duration="431.00" routeLength="550.19" timeLoss="63.32" maxSpeed="1.50"/>
        <ride waitingTime="217.00" vehicle="taxi45" depart="31564.00" arrival="32753.00" arrivalPos="15.00" duration="1189.00" routeLength="19333.38" timeLoss="123.92"/>
        <walk depart="32753.00" departPos="15.00" arrival="32842.00" arrivalPos="7.10" duration="89.00" routeLength="119.44" timeLoss="9.18" maxSpeed="1.50"/>
    </personinfo>
    <personinfo id="th146" depart="32072.04" type="DEFAULT_PEDTYPE">
        <walk depart="32073.00" departPos="192.89" arrival="32218.00" arrivalPos="7.50" duration="145.00" routeLength="185.39" timeLoss="13.96" maxSpeed="1.41"/>
        <ride waitingTime="439.00" vehicle="taxi78" depart="32657.00" arrival="32867.00" arrivalPos="25.00" duration="210.00" routeLength="2295.31" timeLoss="28.76"/>
        <walk depart="32867.00" departPos="25.00" arrival="32877.00" arrivalPos="12.94" duration="10.00" routeLength="12.06" timeLoss="1.48" maxSpeed="1.41"/>
    </personinfo>
    <personinfo id="d100" depart="32367.26" type="DEFAULT_PEDTYPE">
        <walk depart="32368.00" departPos="19.99" arrival="32372.00" arrivalPos="15.00" duration="4.00" routeLength="4.99" timeLoss="0.32" maxSpeed="1.36"/>
        <ride waitingTime="36.00" vehicle="taxi26" depart="32408.00" arrival="32824.00" arrivalPos="13.24" duration="416.00" routeLength="6675.55" timeLoss="40.04"/>
        <walk depart="32824.00" departPos="13.24" arrival="32887.00" arrivalPos="19.40" duration="63.00" routeLength="91.42" timeLoss="-4.31" maxSpeed="1.36"/>
    </personinfo>
    <personinfo id="d93" depart="32235.74" type="DEFAULT_PEDTYPE">
        <walk depart="32236.00" departPos="23.80" arrival="32243.00" arrivalPos="15.00" duration="7.00" routeLength="8.80" timeLoss="0.58" maxSpeed="1.37"/>
        <ride waitingTime="44.00" vehicle="taxi0" depart="32287.00" arrival="32831.00" arrivalPos="33.91" duration="544.00" routeLength="8205.85" timeLoss="64.27"/>
        <walk depart="32831.00" departPos="33.91" arrival="32896.00" arrivalPos="3.03" duration="65.00" routeLength="20.29" timeLoss="50.18" maxSpeed="1.37"/>
    </personinfo>
    <personinfo id="d143" depart="32421.41" type="DEFAULT_PEDTYPE">
        <walk depart="32422.00" departPos="16.42" arrival="32424.00" arrivalPos="15.00" duration="2.00" routeLength="1.42" timeLoss="0.98" maxSpeed="1.39"/>
        <ride waitingTime="45.00" vehicle="taxi27" depart="32469.00" arrival="32566.00" arrivalPos="46.63" duration="97.00" routeLength="791.33" timeLoss="21.78"/>
        <walk depart="32566.00" departPos="46.63" arrival="32905.00" arrivalPos="10.81" duration="339.00" routeLength="448.05" timeLoss="17.08" maxSpeed="1.39"/>
    </personinfo>
    <personinfo id="d112" depart="32394.65" type="DEFAULT_PEDTYPE">
        <walk depart="32395.00" departPos="10.67" arrival="32396.00" arrivalPos="10.00" duration="1.00" routeLength="0.67" timeLoss="0.52" maxSpeed="1.37"/>
        <ride waitingTime="46.00" vehicle="taxi27" depart="32442.00" arrival="32891.00" arrivalPos="44.82" duration="449.00" routeLength="3721.79" timeLoss="92.34"/>
        <walk depart="32891.00" departPos="44.82" arrival="33012.00" arrivalPos="2.94" duration="121.00" routeLength="153.54" timeLoss="9.31" maxSpeed="1.37"/>
    </personinfo>
    <personinfo id="d35" depart="31079.74" type="DEFAULT_PEDTYPE">
        <walk depart="31080.00" departPos="9.11" arrival="31085.00" arrivalPos="15.00" duration="5.00" routeLength="5.89" timeLoss="0.21" maxSpeed="1.23"/>
        <ride waitingTime="847.00" vehicle="taxi92" depart="31932.00" arrival="32889.00" arrivalPos="15.00" duration="957.00" routeLength="16672.66" timeLoss="75.47"/>