<?xml version="1.0" encoding="UTF-8"?>

<!-- generated by Eclipse SUMO sumo Version 1.12.0
<configuration xmlns:xsi="http://www.w3.org/2001/XMLSchema-instance" xsi:noNamespaceSchemaLocation="http://sumo.dlr.de/xsd/sumoConfiguration.xsd">

    <input>
        <net-file value="D:\Dokumente\sumo\maloja\simple.net.xml"/>
        <route-files value="D:\Dokumente\sumo\maloja\09_daytrips\persontrips_maloja_daytrips_resolved_offseason_taxi.rou.xml,D:\Dokumente\sumo\maloja\11_hotel\persontrips_maloja_hotel_resolved_offseason_taxi.rou.xml,D:\Dokumente\sumo\maloja\12_non_hotel\persontrips_maloja_non_hotel_resolved_offseason_taxi.rou.xml,D:\Dokumente\sumo\maloja\13_private\persontrips_maloja_private_resolved_offseason_taxi.rou.xml"/>
        <additional-files value="D:\Dokumente\sumo\maloja\03_bus\virtualstop.add.xml,D:\Dokumente\sumo\maloja\03_bus\03_November\gtfs_pt_stops.add.xml,D:\Dokumente\sumo\maloja\15_drt_fleet\drt_fleet.xml,D:\Dokumente\sumo\maloja\15_drt_fleet\drt_parking.add.xml,D:\Dokumente\sumo\maloja\15_drt_fleet\drt_parking_rerouter.add.xml"/>
    </input>

    <output>
        <tripinfo-output value="tripinfos_drt.xml"/>
        <tripinfo-output.write-unfinished value="true"/>
        <stop-output value="stopinfos_drt.xml"/>
        <statistic-output value="stats_drt.xml"/>
    </output>

    <time>
        <begin value="20520"/>
        <end value="77400"/>
    </time>

    <routing>
        <routing-algorithm value="dijkstra"/>
        <persontrip.transfer.taxi-walk value="ptStops"/>
        <persontrip.transfer.walk-taxi value="ptStops"/>
    </routing>

    <report>
        <verbose value="true"/>
        <log value="simulation.log.txt"/>
        <error-log value="sumo_error.log"/>
        <duration-log.statistics value="true"/>
    </report>

    <taxi_device>
        <device.taxi.dispatch-algorithm value="traci"/>
    </taxi_device>

    <traci_server>
        <remote-port value="61613"/>
    </traci_server>

</configuration>
-->

<tripinfos xmlns:xsi="http://www.w3.org/2001/XMLSchema-instance" xsi:noNamespaceSchemaLocation="http://sumo.dlr.de/xsd/tripinfo_file.xsd">
    <personinfo id="d128" depart="28979.52" type="DEFAULT_PEDTYPE">
        <walk depart="28980.00" departPos="15.62" arrival="28984.00" arrivalPos="10.00" duration="4.00" routeLength="5.62" timeLoss="0.39" maxSpeed="1.56"/>
        <ride waitingTime="35.00" vehicle="taxi9" depart="29019.00" arrival="29214.00" arrivalPos="45.55" duration="195.00" routeLength="2626.38" timeLoss="24.54"/>
        <walk depart="29214.00" departPos="45.55" arrival="29598.00" arrivalPos="105.14" duration="384.00" routeLength="553.33" timeLoss="28.44" maxSpeed="1.56"/>
    </personinfo>
    <personinfo id="d92" depart="29122.82" type="DEFAULT_PEDTYPE">
        <walk depart="29123.00" departPos="3.38" arrival="29133.00" arrivalPos="15.00" duration="10.00" routeLength="11.62" timeLoss="1.62" maxSpeed="1.39"/>
        <ride waitingTime="37.00" vehicle="taxi36" depart="29170.00" arrival="29578.00" arrivalPos="13.24" duration="408.00" routeLength="6663.45" timeLoss="44.57"/>
        <walk depart="29578.00" departPos="13.24" arrival="29617.00" arrivalPos="0.67" duration="39.00" routeLength="47.62" timeLoss="4.65" maxSpeed="1.39"/>
    </personinfo>
    <personinfo id="d89" depart="29197.95" type="DEFAULT_PEDTYPE">
        <walk depart="29198.00" departPos="27.85" arrival="29210.00" arrivalPos="15.00" duration="12.00" routeLength="12.85" timeLoss="1.47" maxSpeed="1.22"/>
        <ride waitingTime="47.00" vehicle="taxi45" depart="29257.00" arrival="29655.00" arrivalPos="524.38" duration="398.00" routeLength="7115.34" timeLoss="48.62"/>
        <walk depart="29655.00" departPos="524.38" arrival="29687.00" arrivalPos="23.98" duration="32.00" routeLength="38.11" timeLoss="0.76" maxSpeed="1.22"/>
    </personinfo>
    <personinfo id="th122" depart="28979.52" type="DEFAULT_PEDTYPE">
        <walk depart="28980.00" departPos="29.65" arrival="28991.00" arrivalPos="18.71" duration="11.00" routeLength="10.94" timeLoss="2.42" maxSpeed="1.28"/>
        <ride waitingTime="84.00" vehicle="taxi10" depart="29075.00" arrival="29442.00" arrivalPos="45.55" duration="367.00" routeLength="3978.00" timeLoss="38.56"/>
        <walk depart="29442.00" departPos="45.55" arrival="29906.00" arrivalPos="105.14" duration="464.00" routeLength="553.33" timeLoss="30.05" maxSpeed="1.28"/>
    </personinfo>
    <personinfo id="th83" depart="29197.95" type="DEFAULT_PEDTYPE">
        <walk depart="29198.00" departPos="101.56" arrival="29294.00" arrivalPos="23.94" duration="96.00" routeLength="162.89" timeLoss="-6.18" maxSpeed="1.59"/>
        <ride waitingTime="131.00" vehicle="taxi65" depart="29425.00" arrival="29918.00" arrivalPos="15.00" duration="493.00" routeLength="8604.64" timeLoss="50.67"/>
        <walk depart="29918.00" departPos="15.00" arrival="29930.00" arrivalPos="1.99" duration="12.00" routeLength="20.20" timeLoss="-0.67" maxSpeed="1.59"/>
    </personinfo>
    <personinfo id="tp83" depart="29197.95" type="DEFAULT_PEDTYPE">
        <walk depart="29198.00" departPos="120.67" arrival="29291.00" arrivalPos="23.94" duration="93.00" routeLength="143.77" timeLoss="-8.29" maxSpeed="1.42"/>
        <ride waitingTime="90.00" vehicle="taxi65" depart="29381.00" arrival="29918.00" arrivalPos="15.00" duration="537.00" routeLength="8976.22" timeLoss="63.34"/>
        <walk depart="29918.00" departPos="15.00" arrival="29932.00" arrivalPos="1.99" duration="14.00" routeLength="20.20" timeLoss="-0.23" maxSpeed="1.42"/>
    </personinfo>
    <personinfo id="tp122" depart="28979.52" type="DEFAULT_PEDTYPE">
        <walk depart="28980.00" departPos="29.18" arrival="28990.00" arrivalPos="18.71" duration="10.00" routeLength="10.47" timeLoss="1.10" maxSpeed="1.18"/>
        <ride waitingTime="54.00" vehicle="taxi10" depart="29044.00" arrival="29442.00" arrivalPos="45.55" duration="398.00" routeLength="4090.06" timeLoss="48.64"/>
        <walk depart="29442.00" departPos="45.55" arrival="29947.00" arrivalPos="105.14" duration="505.00" routeLength="553.33" timeLoss="34.55" maxSpeed="1.18"/>
    </personinfo>
    <personinfo id="tn81" depart="29197.95" type="DEFAULT_PEDTYPE">
        <walk depart="29198.00" departPos="14.05" arrival="29378.00" arrivalPos="23.94" duration="180.00" routeLength="250.40" timeLoss="0.02" maxSpeed="1.39"/>
        <ride waitingTime="349.00" vehicle="taxi10" depart="29727.00" arrival="29857.00" arrivalPos="25.00" duration="130.00" routeLength="1701.33" timeLoss="21.05"/>
        <walk depart="29857.00" departPos="25.00" arrival="29972.00" arrivalPos="0.24" duration="115.00" routeLength="143.26" timeLoss="12.03" maxSpeed="1.39"/>
    </personinfo>
    <personinfo id="tn85" depart="28889.60" type="DEFAULT_PEDTYPE">
        <walk depart="28890.00" departPos="26.86" arrival="29303.00" arrivalPos="553.86" duration="413.00" routeLength="551.68" timeLoss="45.34" maxSpeed="1.50"/>
        <ride waitingTime="531.00" vehicle="taxi36" depart="29834.00" arrival="30059.00" arrivalPos="25.00" duration="225.00" routeLength="3011.61" timeLoss="30.70"/>
        <walk depart="30059.00" departPos="25.00" arrival="30060.00" arrivalPos="25.50" duration="1.00" routeLength="0.50" timeLoss="0.67" maxSpeed="1.50"/>
    </personinfo>
    <personinfo id="d56" depart="28921.78" type="DEFAULT_PEDTYPE">
        <walk depart="28922.00" departPos="6.52" arrival="28930.00" arrivalPos="15.00" duration="8.00" routeLength="8.48" timeLoss="1.35" maxSpeed="1.28"/>
        <ride waitingTime="61.00" vehicle="taxi9" depart="28991.00" arrival="29719.00" arrivalPos="15.00" duration="728.00" routeLength="10673.22" timeLoss="90.25"/>
        <walk depart="29719.00" departPos="15.00" arrival="30062.00" arrivalPos="62.06" duration="343.00" routeLength="452.97" timeLoss="-12.05" maxSpeed="1.28"/>
    </personinfo>
    <personinfo id="d136" depart="29903.27" type="DEFAULT_PEDTYPE">
        <walk depart="29904.00" departPos="25.12" arrival="29913.00" arrivalPos="15.00" duration="9.00" routeLength="10.12" timeLoss="1.48" maxSpeed="1.34"/>
        <ride waitingTime="188.00" vehicle="taxi36" depart="30101.00" arrival="30376.00" arrivalPos="25.48" duration="275.00" routeLength="3577.61" timeLoss="40.14"/>
        <walk depart="30376.00" departPos="25.48" arrival="30617.00" arrivalPos="1.56" duration="241.00" routeLength="307.54" timeLoss="12.34" maxSpeed="1.34"/>
    </personinfo>
    <personinfo id="th138" depart="30205.95" type="DEFAULT_PEDTYPE">
        <walk depart="30206.00" departPos="0.55" arrival="30210.00" arrivalPos="5.29" duration="4.00" routeLength="25.76" timeLoss="-12.13" maxSpeed="1.60"/>
        <ride waitingTime="126.00" vehicle="taxi38" depart="30336.00" arrival="30635.00" arrivalPos="20.00" duration="299.00" routeLength="4417.15" timeLoss="60.05"/>
        <walk depart="30635.00" departPos="20.00" arrival="30636.00" arrivalPos="20.38" duration="1.00" routeLength="0.38" timeLoss="0.76" maxSpeed="1.60"/>
    </personinfo>
    <personinfo id="tp138" depart="30205.95" type="DEFAULT_PEDTYPE">
        <walk depart="30206.00" departPos="3.00" arrival="30212.00" arrivalPos="5.29" duration="6.00" routeLength="28.20" timeLoss="-12.41" maxSpeed="1.53"/>
        <ride waitingTime="140.00" vehicle="taxi38" depart="30352.00" arrival="30635.00" arrivalPos="20.00" duration="283.00" routeLength="4383.24" timeLoss="49.64"/>
        <walk depart="30635.00" departPos="20.00" arrival="30636.00" arrivalPos="20.38" duration="1.00" routeLength="0.38" timeLoss="0.75" maxSpeed="1.53"/>
    </personinfo>
    <personinfo id="th32" depart="28958.69" type="DEFAULT_PEDTYPE">
        <walk depart="28959.00" departPos="53.62" arrival="28991.00" arrivalPos="15.53" duration="32.00" routeLength="38.09" timeLoss="4.16" maxSpeed="1.37"/>
        <ride waitingTime="416.00" vehicle="taxi56" depart="29407.00" arrival="30739.00" arrivalPos="6.18" duration="1332.00" routeLength="24310.70" timeLoss="78.29"/>
        <walk depart="30739.00" departPos="6.18" arrival="30759.00" arrivalPos="24.95" duration="20.00" routeLength="41.80" timeLoss="-10.56" maxSpeed="1.37"/>
    </personinfo>
    <personinfo id="tp32" depart="28958.69" type="DEFAULT_PEDTYPE">
        <walk depart="28959.00" departPos="49.98" arrival="28988.00" arrivalPos="15.53" duration="29.00" routeLength="34.45" timeLoss="3.74" maxSpeed="1.36"/>
        <ride waitingTime="344.00" vehicle="taxi56" depart="29332.00" arrival="30739.00" arrivalPos="6.18" duration="1407.00" routeLength="24790.35" timeLoss="90.99"/>
        <walk depart="30739.00" departPos="6.18" arrival="30761.00" arrivalPos="24.95" duration="22.00" routeLength="41.80" timeLoss="-8.65" maxSpeed="1.36"/>
    </personinfo>
    <personinfo id="tn32" depart="28958.69" type="DEFAULT_PEDTYPE">
        <walk depart="28959.00" departPos="12.01" arrival="28962.00" arrivalPos="15.53" duration="3.00" routeLength="3.52" timeLoss="0.52" maxSpeed="1.42"/>
        <ride waitingTime="295.00" vehicle="taxi56" depart="29257.00" arrival="30739.00" arrivalPos="6.18" duration="1482.00" routeLength="25270.00" timeLoss="104.35"/>
        <walk depart="30739.00" departPos="6.18" arrival="30764.00" arrivalPos="19.95" duration="25.00" routeLength="46.80" timeLoss="-7.97" maxSpeed="1.42"/>
    </personinfo>
    <personinfo id="th129" depart="29903.27" type="DEFAULT_PEDTYPE">
        <walk depart="29904.00" departPos="18.12" arrival="30321.00" arrivalPos="184.55" duration="417.00" routeLength="454.56" timeLoss="79.64" maxSpeed="1.35"/>
        <ride waitingTime="277.00" vehicle="taxi47" depart="30598.00" arrival="30792.00" arrivalPos="25.00" duration="194.00" routeLength="2643.35" timeLoss="30.00"/>
        <walk depart="30792.00" departPos="25.00" arrival="30812.00" arrivalPos="1.24" duration="20.00" routeLength="23.76" timeLoss="2.37" maxSpeed="1.35"/>
    </personinfo>
    <personinfo id="tp129" depart="29903.27" type="DEFAULT_PEDTYPE">
        <walk depart="29904.00" departPos="6.66" arrival="30320.00" arrivalPos="184.55" duration="416.00" routeLength="443.10" timeLoss="41.85" maxSpeed="1.18"/>
        <ride waitingTime="225.00" vehicle="taxi47" depart="30545.00" arrival="30792.00" arrivalPos="25.00" duration="247.00" routeLength="3217.66" timeLoss="52.64"/>
        <walk depart="30792.00" departPos="25.00" arrival="30815.00" arrivalPos="1.24" duration="23.00" routeLength="23.76" timeLoss="2.94" maxSpeed="1.18"/>
    </personinfo>
    <personinfo id="d145" depart="30205.95" type="DEFAULT_PEDTYPE">
        <walk depart="30206.00" departPos="22.50" arrival="30212.00" arrivalPos="15.00" duration="6.00" routeLength="7.50" timeLoss="1.28" maxSpeed="1.59"/>
        <ride waitingTime="397.00" vehicle="taxi38" depart="30609.00" arrival="30799.00" arrivalPos="53.58" duration="190.00" routeLength="1742.93" timeLoss="35.34"/>
        <walk depart="30799.00" departPos="53.58" arrival="30876.00" arrivalPos="18.64" duration="77.00" routeLength="43.59" timeLoss="49.55" maxSpeed="1.59"/>
    </personinfo>
    <personinfo id="d66" depart="30056.12" type="DEFAULT_PEDTYPE">
        <walk depart="30057.00" departPos="27.51" arrival="30067.00" arrivalPos="15.00" duration="10.00" routeLength="12.51" timeLoss="1.63" maxSpeed="1.49"/>
        <ride waitingTime="62.00" vehicle="taxi36" depart="30129.00" arrival="30923.00" arrivalPos="34.99" duration="794.00" routeLength="11755.52" timeLoss="86.47"/>
        <walk depart="30923.00" departPos="34.99" arrival="30960.00" arrivalPos="14.16" duration="37.00" routeLength="52.37" timeLoss="1.96" maxSpeed="1.49"/>
    </personinfo>
    <personinfo id="tp26" depart="29784.39" type="DEFAULT_PEDTYPE">
        <walk depart="29785.00" departPos="144.50" arrival="30110.00" arrivalPos="2.55" duration="325.00" routeLength="428.74" timeLoss="26.69" maxSpeed="1.44"/>
        <ride waitingTime="47.00" vehicle="taxi17" depart="30157.00" arrival="30443.00" arrivalPos="18.17" duration="286.00" routeLength="4471.15" timeLoss="36.69"/>
        <walk depart="30443.00" departPos="18.17" arrival="31135.00" arrivalPos="36.60" duration="692.00" routeLength="938.96" timeLoss="38.69" maxSpeed="1.44"/>
    </personinfo>
    <personinfo id="d115" depart="30649.67" type="DEFAULT_PEDTYPE">
        <walk depart="30650.00" departPos="1.24" arrival="30663.00" arrivalPos="15.00" duration="13.00" routeLength="13.76" timeLoss="2.04" maxSpeed="1.26"/>
        <ride waitingTime="336.00" vehicle="taxi38" depart="30999.00" arrival="31119.00" arrivalPos="17.26" duration="120.00" routeLength="1533.40" timeLoss="23.84"/>
        <walk depart="31119.00" departPos="17.26" arrival="31177.00" arrivalPos="27.61" duration="58.00" routeLength="78.11" timeLoss="-4.21" maxSpeed="1.26"/>
    </personinfo>
    <personinfo id="th26" depart="29784.39" type="DEFAULT_PEDTYPE">
        <walk depart="29785.00" departPos="8.52" arrival="30062.00" arrivalPos="2.55" duration="277.00" routeLength="292.77" timeLoss="18.40" maxSpeed="1.13"/>
        <ride waitingTime="36.00" vehicle="taxi26" depart="30098.00" arrival="30386.00" arrivalPos="18.17" duration="288.00" routeLength="4471.22" timeLoss="35.83"/>
        <walk depart="30386.00" departPos="18.17" arrival="31255.00" arrivalPos="36.60" duration="869.00" routeLength="938.96" timeLoss="39.60" maxSpeed="1.13"/>
    </personinfo>
    <personinfo id="tn26" depart="29784.39" type="DEFAULT_PEDTYPE">
        <walk depart="29785.00" departPos="147.82" arrival="30135.00" arrivalPos="2.55" duration="350.00" routeLength="432.07" timeLoss="29.61" maxSpeed="1.35"/>
        <ride waitingTime="52.00" vehicle="taxi71" depart="30187.00" arrival="30469.00" arrivalPos="18.17" duration="282.00" routeLength="4471.13" timeLoss="36.50"/>
        <walk depart="30469.00" departPos="18.17" arrival="31255.00" arrivalPos="36.60" duration="786.00" routeLength="938.96" timeLoss="89.73" maxSpeed="1.35"/>
    </personinfo>
    <personinfo id="tn68" depart="30891.43" type="DEFAULT_PEDTYPE">
        <walk depart="30892.00" departPos="0.15" arrival="30900.00" arrivalPos="6.12" duration="8.00" routeLength="8.95" timeLoss="1.59" maxSpeed="1.40"/>
        <ride waitingTime="158.00" vehicle="taxi2" depart="31058.00" arrival="31208.00" arrivalPos="109.72" duration="150.00" routeLength="2590.55" timeLoss="29.47"/>
        <walk depart="31208.00" departPos="109.72" arrival="31255.00" arrivalPos="0.15" duration="47.00" routeLength="56.08" timeLoss="6.81" maxSpeed="1.40"/>
    </personinfo>
    <personinfo id="tn48" depart="30772.95" type="DEFAULT_PEDTYPE">
        <walk depart="30773.00" departPos="12.11" arrival="30832.00" arrivalPos="10.67" duration="59.00" routeLength="67.19" timeLoss="8.38" maxSpeed="1.33"/>
        <ride waitingTime="49.00" vehicle="taxi17" depart="30881.00" arrival="31299.00" arrivalPos="20.00" duration="418.00" routeLength="6731.42" timeLoss="46.66"/>
        <walk depart="31299.00" departPos="20.00" arrival="31315.00" arrivalPos="1.20" duration="16.00" routeLength="18.80" timeLoss="1.84" maxSpeed="1.33"/>
    </personinfo>
    <personinfo id="d57" depart="30960.73" type="DEFAULT_PEDTYPE">
        <walk depart="30961.00" departPos="18.54" arrival="30964.00" arrivalPos="15.00" duration="3.00" routeLength="3.54" timeLoss="0.43" maxSpeed="1.38"/>
        <ride waitingTime="66.00" vehicle="taxi27" depart="31030.00" arrival="31633.00" arrivalPos="15.00" duration="603.00" routeLength="10571.48" timeLoss="62.87"/>
        <walk depart="31633.00" departPos="15.00" arrival="31639.00" arrivalPos="21.47" duration="6.00" routeLength="6.47" timeLoss="1.30" maxSpeed="1.38"/>
    </personinfo>
    <personinfo id="th109" depart="30649.67" type="DEFAULT_PEDTYPE">
        <walk depart="30650.00" departPos="1.29" arrival="30884.00" arrivalPos="5.29" duration="234.00" routeLength="345.38" timeLoss="-1.22" maxSpeed="1.47"/>
        <ride waitingTime="475.00" vehicle="taxi38" depart="31359.00" arrival="31603.00" arrivalPos="15.00" duration="244.00" routeLength="3811.60" timeLoss="44.01"/>
        <walk depart="31603.00" departPos="15.00" arrival="31650.00" arrivalPos="14.92" duration="47.00" routeLength="63.55" timeLoss="3.72" maxSpeed="1.47"/>
    </personinfo>
    <personinfo id="tp109" depart="30649.67" type="DEFAULT_PEDTYPE">
        <walk depart="30650.00" departPos="2.05" arrival="30862.00" arrivalPos="5.29" duration="212.00" routeLength="344.62" timeLoss="0.30" maxSpeed="1.63"/>
        <ride waitingTime="528.00" vehicle="taxi36" depart="31390.00" arrival="31652.00" arrivalPos="15.00" duration="262.00" routeLength="3810.80" timeLoss="47.34"/>
        <walk depart="31652.00" departPos="15.00" arrival="31694.00" arrivalPos="14.92" duration="42.00" routeLength="63.55" timeLoss="2.96" maxSpeed="1.63"/>
    </personinfo>
    <personinfo id="th156" depart="31417.42" type="DEFAULT_PEDTYPE">
        <walk depart="31418.00" departPos="4.15" arrival="31428.00" arrivalPos="7.50" duration="10.00" routeLength="22.54" timeLoss="-6.25" maxSpeed="1.39"/>
        <ride waitingTime="397.00" vehicle="taxi26" depart="31825.00" arrival="31987.00" arrivalPos="25.00" duration="162.00" routeLength="1492.64" timeLoss="27.17"/>
        <walk depart="31987.00" departPos="25.00" arrival="31997.00" arrivalPos="13.22" duration="10.00" routeLength="11.78" timeLoss="1.51" maxSpeed="1.39"/>
    </personinfo>
    <personinfo id="tp156" depart="31417.42" type="DEFAULT_PEDTYPE">
        <walk depart="31418.00" departPos="17.31" arrival="31438.00" arrivalPos="7.50" duration="20.00" routeLength="35.69" timeLoss="-4.84" maxSpeed="1.44"/>
        <ride waitingTime="387.00" vehicle="taxi26" depart="31825.00" arrival="31987.00" arrivalPos="25.00" duration="162.00" routeLength="1492.64" timeLoss="27.17"/>
        <walk depart="31987.00" departPos="25.00" arrival="31998.00" arrivalPos="13.22" duration="11.00" routeLength="11.78" timeLoss="2.80" maxSpeed="1.44"/>
    </personinfo>
    <personinfo id="th65" depart="29217.29" type="DEFAULT_PEDTYPE">
        <walk depart="29218.00" departPos="1.42" arrival="29842.00" arrivalPos="18.71" duration="624.00" routeLength="710.39" timeLoss="37.84" maxSpeed="1.21"/>
        <ride waitingTime="76.00" vehicle="taxi64" depart="29918.00" arrival="31164.00" arrivalPos="98.33" duration="1246.00" routeLength="19752.25" timeLoss="102.56"/>
        <walk depart="31164.00" departPos="98.33" arrival="32009.00" arrivalPos="16.12" duration="845.00" routeLength="934.66" timeLoss="73.78" maxSpeed="1.21"/>
    </personinfo>
    <personinfo id="tp65" depart="29217.29" type="DEFAULT_PEDTYPE">
        <walk depart="29218.00" departPos="2.70" arrival="29841.00" arrivalPos="18.71" duration="623.00" routeLength="709.11" timeLoss="22.79" maxSpeed="1.18"/>
        <ride waitingTime="44.00" vehicle="taxi64" depart="29885.00" arrival="31164.00" arrivalPos="98.33" duration="1279.00" routeLength="19864.31" timeLoss="112.78"/>
        <walk depart="31164.00" departPos="98.33" arrival="32032.00" arrivalPos="16.12" duration="868.00" routeLength="934.66" timeLoss="76.87" maxSpeed="1.18"/>
    </personinfo>
    <personinfo id="tp153" depart="30962.87" type="DEFAULT_PEDTYPE">
        <walk depart="30963.00" departPos="5.00" arrival="31478.00" arrivalPos="184.55" duration="515.00" routeLength="646.75" timeLoss="33.53" maxSpeed="1.34"/>
        <ride waitingTime="423.00" vehicle="taxi38" depart="31901.00" arrival="32079.00" arrivalPos="25.00" duration="178.00" routeLength="2642.55" timeLoss="29.40"/>
        <walk depart="32079.00" departPos="25.00" arrival="32100.00" arrivalPos="0.17" duration="21.00" routeLength="24.83" timeLoss="2.52" maxSpeed="1.34"/>
    </personinfo>
    <personinfo id="d141" depart="31854.41" type="DEFAULT_PEDTYPE">
        <walk depart="31855.00" departPos="27.01" arrival="31869.00" arrivalPos="10.00" duration="14.00" routeLength="17.01" timeLoss="1.97" maxSpeed="1.41"/>
        <ride waitingTime="27.00" vehicle="taxi63" depart="31896.00" arrival="32051.00" arrivalPos="33.59" duration="155.00" routeLength="1865.14" timeLoss="26.69"/>
        <walk depart="32051.00" departPos="33.59" arrival="32109.00" arrivalPos="36.77" duration="58.00" routeLength="76.07" timeLoss="4.17" maxSpeed="1.41"/>
    </personinfo>
    <personinfo id="th153" depart="30962.87" type="DEFAULT_PEDTYPE">
        <walk depart="30963.00" departPos="101.13" arrival="31567.00" arrivalPos="184.55" duration="604.00" routeLength="742.88" timeLoss="41.68" maxSpeed="1.32"/>
        <ride waitingTime="397.00" vehicle="taxi36" depart="31964.00" arrival="32148.00" arrivalPos="25.00" duration="184.00" routeLength="2643.35" timeLoss="25.17"/>
        <walk depart="32148.00" departPos="25.00" arrival="32169.00" arrivalPos="0.17" duration="21.00" routeLength="24.83" timeLoss="2.21" maxSpeed="1.32"/>
    </personinfo>
    <personinfo id="th89" depart="31346.34" type="DEFAULT_PEDTYPE">
        <walk depart="31347.00" departPos="64.23" arrival="31433.00" arrivalPos="9.76" duration="86.00" routeLength="114.61" timeLoss="-0.12" maxSpeed="1.33"/>
        <ride waitingTime="231.00" vehicle="taxi18" depart="31664.00" arrival="32238.00" arrivalPos="34.99" duration="574.00" routeLength="9725.62" timeLoss="70.52"/>
        <walk depart="32238.00" departPos="34.99" arrival="32278.00" arrivalPos="12.82" duration="40.00" routeLength="51.03" timeLoss="1.66" maxSpeed="1.33"/>
    </personinfo>
    <personinfo id="tp89" depart="31346.34" type="DEFAULT_PEDTYPE">
        <walk depart="31347.00" departPos="37.80" arrival="31446.00" arrivalPos="9.76" duration="99.00" routeLength="141.04" timeLoss="6.02" maxSpeed="1.52"/>
        <ride waitingTime="247.00" vehicle="taxi18" depart="31693.00" arrival="32238.00" arrivalPos="34.99" duration="545.00" routeLength="9566.43" timeLoss="56.13"/>
        <walk depart="32238.00" departPos="34.99" arrival="32279.00" arrivalPos="12.82" duration="41.00" routeLength="51.03" timeLoss="7.36" maxSpeed="1.52"/>
    </personinfo>
    <personinfo id="th63" depart="30915.84" type="DEFAULT_PEDTYPE">
        <walk depart="30916.00" departPos="4.75" arrival="31308.00" arrivalPos="87.83" duration="392.00" routeLength="511.53" timeLoss="27.53" maxSpeed="1.40"/>
        <ride waitingTime="212.00" vehicle="taxi17" depart="31520.00" arrival="32437.00" arrivalPos="15.00" duration="917.00" routeLength="16658.82" timeLoss="89.26"/>
        <walk depart="32437.00" departPos="15.00" arrival="32531.00" arrivalPos="7.10" duration="94.00" routeLength="119.44" timeLoss="8.90" maxSpeed="1.40"/>
    </personinfo>
    <personinfo id="d35" depart="31079.74" type="DEFAULT_PEDTYPE">
        <walk depart="31080.00" departPos="19.14" arrival="31084.00" arrivalPos="15.00" duration="4.00" routeLength="4.14" timeLoss="1.15" maxSpeed="1.46"/>
        <ride waitingTime="570.00" vehicle="taxi2" depart="31654.00" arrival="32530.00" arrivalPos="15.00" duration="876.00" routeLength="16673.46" timeLoss="72.54"/>
        <walk depart="32530.00" departPos="15.00" arrival="32660.00" arrivalPos="1.00" duration="130.00" routeLength="212.89" timeLoss="-16.30" maxSpeed="1.46"/>
    </personinfo>
    <personinfo id="d112" depart="32394.65" type="DEFAULT_PEDTYPE">
        <walk depart="32395.00" departPos="11.42" arrival="32397.00" arrivalPos="10.00" duration="2.00" routeLength="1.42" timeLoss="1.07" maxSpeed="1.52"/>
        <ride waitingTime="43.00" vehicle="taxi26" depart="32440.00" arrival="32618.00" arrivalPos="44.82" duration="178.00" routeLength="2066.63" timeLoss="30.99"/>
        <walk depart="32618.00" departPos="44.82" arrival="32726.00" arrivalPos="2.94" duration="108.00" routeLength="153.54" timeLoss="6.92" maxSpeed="1.52"/>
    </personinfo>
    <personinfo id="d153" depart="32072.04" type="DEFAULT_PEDTYPE">
        <walk depart="32073.00" departPos="18.58" arrival="32076.00" arrivalPos="15.00" duration="3.00" routeLength="3.58" timeLoss="0.45" maxSpeed="1.40"/>
        <ride waitingTime="157.00" vehicle="taxi36" depart="32233.00" arrival="32467.00" arrivalPos="73.53" duration="234.00" routeLength="3068.94" timeLoss="35.62"/>
        <walk depart="32467.00" departPos="73.53" arrival="32818.00" arrivalPos="62.03" duration="351.00" routeLength="460.44" timeLoss="22.57" maxSpeed="1.40"/>
    </personinfo>
    <personinfo id="d91" depart="32165.36" type="DEFAULT_PEDTYPE">
        <walk depart="32166.00" departPos="4.56" arrival="32175.00" arrivalPos="15.00" duration="9.00" routeLength="10.44" timeLoss="0.94" maxSpeed="1.29"/>
        <ride waitingTime="83.00" vehicle="taxi54" depart="32258.00" arrival="32706.00" arrivalPos="23.03" duration="448.00" routeLength="6483.16" timeLoss="63.24"/>
        <walk depart="32706.00" departPos="23.03" arrival="32823.00" arrivalPos="33.80" duration="117.00" routeLength="138.69" timeLoss="9.87" maxSpeed="1.29"/>
    </personinfo>
    <personinfo id="th146" depart="32072.04" type="DEFAULT_PEDTYPE">
        <walk depart="32073.00" departPos="164.07" arrival="32205.00" arrivalPos="7.50" duration="132.00" routeLength="156.57" timeLoss="13.91" maxSpeed="1.33"/>
        <ride waitingTime="419.00" vehicle="taxi71" depart="32624.00" arrival="32837.00" arrivalPos="25.00" duration="213.00" routeLength="2290.33" timeLoss="29.51"/>
        <walk depart="32837.00" departPos="25.00" arrival="32847.00" arrivalPos="12.94" duration="10.00" routeLength="12.06" timeLoss="0.90" maxSpeed="1.33"/>
    </personinfo>
    <personinfo id="tp146" depart="32072.04" type="DEFAULT_PEDTYPE">
        <walk depart="32073.00" departPos="195.04" arrival="32206.00" arrivalPos="7.50" duration="133.00" routeLength="187.54" timeLoss="13.82" maxSpeed="1.57"/>
        <ride waitingTime="418.00" vehicle="taxi71" depart="32624.00" arrival="32837.00" arrivalPos="25.00" duration="213.00" routeLength="2290.33" timeLoss="29.51"/>
        <walk depart="32837.00" departPos="25.00" arrival="32848.00" arrivalPos="12.94" duration="11.00" routeLength="12.06" timeLoss="3.34" maxSpeed="1.57"/>
    </personinfo>
    <personinfo id="d93" depart="32235.74" type="DEFAULT_PEDTYPE">
        <walk depart="32236.00" departPos="2.16" arrival="32246.00" arrivalPos="15.00" duration="10.00" routeLength="12.84" timeLoss="0.78" maxSpeed="1.39"/>
        <ride waitingTime="44.00" vehicle="taxi0" depart="32290.00" arrival="32826.00" arrivalPos="33.91" duration="536.00" routeLength="8205.85" timeLoss="56.67"/>
        <walk depart="32826.00" departPos="33.91" arrival="32892.00" arrivalPos="3.03" duration="66.00" routeLength="20.29" timeLoss="51.43" maxSpeed="1.39"/>
    </personinfo>
    <personinfo id="d100" depart="32367.26" type="DEFAULT_PEDTYPE">
        <walk depart="32368.00" departPos="23.76" arrival="32376.00" arrivalPos="15.00" duration="8.00" routeLength="8.76" timeLoss="1.68" maxSpeed="1.39"/>
        <ride waitingTime="33.00" vehicle="taxi47" depart="32409.00" arrival="32836.00" arrivalPos="13.24" duration="427.00" routeLength="6675.55" timeLoss="46.98"/>
        <walk depart="32836.00" departPos="13.24" arrival="32899.00" arrivalPos="19.40" duration="63.00" routeLength="91.42" timeLoss="-2.97" maxSpeed="1.39"/>
    </personinfo>
    <personinfo id="tp63" depart="30915.84" type="DEFAULT_PEDTYPE">
        <walk depart="30916.00" departPos="24.67" arrival="31309.00" arrivalPos="87.83" duration="393.00" routeLength="531.44" timeLoss="34.11" maxSpeed="1.48"/>
        <ride waitingTime="180.00" vehicle="taxi18" depart="31489.00" arrival="32895.00" arrivalPos="15.00" duration="1406.00" routeLength="20145.81" timeLoss="156.14"/>
        <walk depart="32895.00" departPos="15.00" arrival="32983.00" arrivalPos="7.10" duration="88.00" routeLength="119.44" timeLoss="7.34" maxSpeed="1.48"/>
    </personinfo>
    <personinfo id="d42" depart="32180.65" type="DEFAULT_PEDTYPE">
        <walk depart="32181.00" departPos="0.97" arrival="32193.00" arrivalPos="15.00" duration="12.00" routeLength="14.03" timeLoss="1.46" maxSpeed="1.33"/>
        <ride waitingTime="38.00" vehicle="taxi54" depart="32231.00" arrival="33030.00" arrivalPos="25.93" duration="799.00" routeLength="11198.03" timeLoss="117.88"/>