<?xml version="1.0" encoding="UTF-8"?>

<!-- generated by Eclipse SUMO sumo Version 1.12.0
<configuration xmlns:xsi="http://www.w3.org/2001/XMLSchema-instance" xsi:noNamespaceSchemaLocation="http://sumo.dlr.de/xsd/sumoConfiguration.xsd">

    <input>
        <net-file value="D:\Dokumente\sumo\maloja\simple.net.xml"/>
        <route-files value="D:\Dokumente\sumo\maloja\09_daytrips\persontrips_maloja_daytrips_resolved_offseason_taxi_w15.rou.xml,D:\Dokumente\sumo\maloja\11_hotel\persontrips_maloja_hotel_resolved_offseason_taxi_w15.rou.xml,D:\Dokumente\sumo\maloja\12_non_hotel\persontrips_maloja_non_hotel_resolved_offseason_taxi_w15.rou.xml,D:\Dokumente\sumo\maloja\13_private\persontrips_maloja_private_resolved_offseason_taxi_w15.rou.xml"/>
        <additional-files value="D:\Dokumente\sumo\maloja\03_bus\virtualstop.add.xml,D:\Dokumente\sumo\maloja\03_bus\03_November\gtfs_pt_stops.add.xml,drt_fleet.xml"/>
    </input>

    <output>
        <tripinfo-output value="tripinfos_drt.xml"/>
        <tripinfo-output.write-unfinished value="true"/>
        <stop-output value="stopinfos_drt.xml"/>
        <statistic-output value="stats_drt.xml"/>
    </output>

    <time>
        <begin value="20520"/>
        <end value="77400"/>
    </time>

    <routing>
        <routing-algorithm value="CH"/>
        <persontrip.transfer.taxi-walk value="ptStops"/>
        <persontrip.transfer.walk-taxi value="ptStops"/>
    </routing>

    <report>
        <verbose value="true"/>
        <log value="simulation.log.txt"/>
        <error-log value="sumo_error.log"/>
        <duration-log.statistics value="true"/>
    </report>

    <taxi_device>
        <device.taxi.dispatch-algorithm value="traci"/>
    </taxi_device>

    <traci_server>
        <remote-port value="49497"/>
    </traci_server>

</configuration>
-->

<tripinfos xmlns:xsi="http://www.w3.org/2001/XMLSchema-instance" xsi:noNamespaceSchemaLocation="http://sumo.dlr.de/xsd/tripinfo_file.xsd">
    <personinfo id="d92" depart="29122.82" type="DEFAULT_PEDTYPE">
        <walk depart="29123.00" departPos="9.83" arrival="29128.00" arrivalPos="15.00" duration="5.00" routeLength="5.17" timeLoss="0.53" maxSpeed="1.16"/>
        <ride waitingTime="41.00" vehicle="taxi72" depart="29169.00" arrival="29581.00" arrivalPos="6.62" duration="412.00" routeLength="6656.83" timeLoss="43.09"/>
        <walk depart="29581.00" departPos="6.62" arrival="29622.00" arrivalPos="0.67" duration="41.00" routeLength="41.00" timeLoss="5.58" maxSpeed="1.16"/>
    </personinfo>
    <personinfo id="d89" depart="29197.95" type="DEFAULT_PEDTYPE">
        <walk depart="29198.00" departPos="22.17" arrival="29204.00" arrivalPos="15.00" duration="6.00" routeLength="7.17" timeLoss="0.50" maxSpeed="1.30"/>
        <ride waitingTime="54.00" vehicle="taxi63" depart="29258.00" arrival="29670.00" arrivalPos="516.88" duration="412.00" routeLength="7107.84" timeLoss="44.50"/>
        <walk depart="29670.00" departPos="516.88" arrival="29706.00" arrivalPos="23.98" duration="36.00" routeLength="45.61" timeLoss="1.03" maxSpeed="1.30"/>
    </personinfo>
    <personinfo id="th122" depart="28979.52" type="DEFAULT_PEDTYPE">
        <walk depart="28980.00" departPos="15.23" arrival="28983.00" arrivalPos="18.71" duration="3.00" routeLength="3.48" timeLoss="0.62" maxSpeed="1.46"/>
        <ride waitingTime="33.00" vehicle="taxi82" depart="29016.00" arrival="29394.00" arrivalPos="38.05" duration="378.00" routeLength="3969.70" timeLoss="37.49"/>
        <walk depart="29394.00" departPos="38.05" arrival="29795.00" arrivalPos="105.14" duration="401.00" routeLength="545.83" timeLoss="27.50" maxSpeed="1.46"/>
    </personinfo>
    <personinfo id="d56" depart="28921.78" type="DEFAULT_PEDTYPE">
        <walk depart="28922.00" departPos="21.15" arrival="28927.00" arrivalPos="15.00" duration="5.00" routeLength="6.15" timeLoss="0.75" maxSpeed="1.45"/>
        <ride waitingTime="33.00" vehicle="taxi81" depart="28960.00" arrival="29552.00" arrivalPos="7.50" duration="592.00" routeLength="10563.18" timeLoss="64.60"/>
        <walk depart="29552.00" departPos="7.50" arrival="29860.00" arrivalPos="62.06" duration="308.00" routeLength="460.47" timeLoss="-10.24" maxSpeed="1.45"/>
    </personinfo>
    <personinfo id="th83" depart="29197.95" type="DEFAULT_PEDTYPE">
        <walk depart="29198.00" departPos="39.69" arrival="29349.00" arrivalPos="23.94" duration="151.00" routeLength="224.75" timeLoss="-2.12" maxSpeed="1.47"/>
        <ride waitingTime="69.00" vehicle="taxi20" depart="29418.00" arrival="29879.00" arrivalPos="7.50" duration="461.00" routeLength="8597.14" timeLoss="51.08"/>
        <walk depart="29879.00" departPos="7.50" arrival="29886.00" arrivalPos="1.99" duration="7.00" routeLength="12.70" timeLoss="-1.65" maxSpeed="1.47"/>
    </personinfo>
    <personinfo id="tp83" depart="29197.95" type="DEFAULT_PEDTYPE">
        <walk depart="29198.00" departPos="74.75" arrival="29318.00" arrivalPos="23.94" duration="120.00" routeLength="189.69" timeLoss="-4.49" maxSpeed="1.52"/>
        <ride waitingTime="57.00" vehicle="taxi20" depart="29375.00" arrival="29879.00" arrivalPos="7.50" duration="504.00" routeLength="8968.72" timeLoss="65.28"/>
        <walk depart="29879.00" departPos="7.50" arrival="29887.00" arrivalPos="1.99" duration="8.00" routeLength="12.70" timeLoss="-0.34" maxSpeed="1.52"/>
    </personinfo>
    <personinfo id="tp122" depart="28979.52" type="DEFAULT_PEDTYPE">
        <walk depart="28980.00" departPos="1.99" arrival="28992.00" arrivalPos="18.71" duration="12.00" routeLength="16.72" timeLoss="1.46" maxSpeed="1.59"/>
        <ride waitingTime="60.00" vehicle="taxi55" depart="29052.00" arrival="29610.00" arrivalPos="38.05" duration="558.00" routeLength="5692.65" timeLoss="74.50"/>
        <walk depart="29610.00" departPos="38.05" arrival="29987.00" arrivalPos="105.14" duration="377.00" routeLength="545.83" timeLoss="32.90" maxSpeed="1.59"/>
    </personinfo>
    <personinfo id="d128" depart="28979.52" type="DEFAULT_PEDTYPE">
        <walk depart="28980.00" departPos="24.81" arrival="28993.00" arrivalPos="10.00" duration="13.00" routeLength="14.81" timeLoss="1.69" maxSpeed="1.31"/>
        <ride waitingTime="431.00" vehicle="taxi55" depart="29424.00" arrival="29610.00" arrivalPos="38.05" duration="186.00" routeLength="2618.88" timeLoss="27.27"/>
        <walk depart="29610.00" departPos="38.05" arrival="30056.00" arrivalPos="105.14" duration="446.00" routeLength="545.83" timeLoss="29.04" maxSpeed="1.31"/>
    </personinfo>
    <personinfo id="tn85" depart="28889.60" type="DEFAULT_PEDTYPE">
        <walk depart="28890.00" departPos="59.52" arrival="29372.00" arrivalPos="553.86" duration="482.00" routeLength="584.33" timeLoss="52.55" maxSpeed="1.36"/>
        <ride waitingTime="470.00" vehicle="taxi72" depart="29842.00" arrival="30083.00" arrivalPos="24.60" duration="241.00" routeLength="3011.21" timeLoss="41.78"/>
        <walk depart="30083.00" departPos="24.60" arrival="30084.00" arrivalPos="25.50" duration="1.00" routeLength="0.90" timeLoss="0.34" maxSpeed="1.36"/>
    </personinfo>
    <personinfo id="tn81" depart="29197.95" type="DEFAULT_PEDTYPE">
        <walk depart="29198.00" departPos="6.27" arrival="29405.00" arrivalPos="23.94" duration="207.00" routeLength="258.17" timeLoss="1.94" maxSpeed="1.26"/>
        <ride waitingTime="538.00" vehicle="taxi72" depart="29943.00" arrival="30083.00" arrivalPos="24.60" duration="140.00" routeLength="1699.33" timeLoss="22.07"/>
        <walk depart="30083.00" departPos="24.60" arrival="30210.00" arrivalPos="0.24" duration="127.00" routeLength="142.86" timeLoss="13.53" maxSpeed="1.26"/>
    </personinfo>
    <personinfo id="d136" depart="29903.27" type="DEFAULT_PEDTYPE">
        <walk depart="29904.00" departPos="8.41" arrival="29910.00" arrivalPos="15.00" duration="6.00" routeLength="6.59" timeLoss="0.75" maxSpeed="1.26"/>
        <ride waitingTime="40.00" vehicle="taxi54" depart="29950.00" arrival="30198.00" arrivalPos="20.48" duration="248.00" routeLength="3425.92" timeLoss="31.03"/>
        <walk depart="30198.00" departPos="20.48" arrival="30450.00" arrivalPos="1.56" duration="252.00" routeLength="302.54" timeLoss="11.14" maxSpeed="1.26"/>
    </personinfo>
    <personinfo id="d145" depart="30205.95" type="DEFAULT_PEDTYPE">
        <walk depart="30206.00" departPos="17.27" arrival="30208.00" arrivalPos="15.00" duration="2.00" routeLength="2.27" timeLoss="0.55" maxSpeed="1.56"/>
        <ride waitingTime="42.00" vehicle="taxi18" depart="30250.00" arrival="30390.00" arrivalPos="46.08" duration="140.00" routeLength="1632.89" timeLoss="23.05"/>
        <walk depart="30390.00" departPos="46.08" arrival="30463.00" arrivalPos="18.64" duration="73.00" routeLength="51.09" timeLoss="40.28" maxSpeed="1.56"/>
    </personinfo>
    <personinfo id="tp138" depart="30205.95" type="DEFAULT_PEDTYPE">
        <walk depart="30206.00" departPos="0.98" arrival="30212.00" arrivalPos="5.29" duration="6.00" routeLength="26.19" timeLoss="-10.64" maxSpeed="1.57"/>
        <ride waitingTime="345.00" vehicle="taxi80" depart="30557.00" arrival="30816.00" arrivalPos="10.00" duration="259.00" routeLength="4203.88" timeLoss="33.45"/>
        <walk depart="30816.00" departPos="10.00" arrival="30824.00" arrivalPos="20.38" duration="8.00" routeLength="10.38" timeLoss="1.40" maxSpeed="1.57"/>
    </personinfo>
    <personinfo id="th129" depart="29903.27" type="DEFAULT_PEDTYPE">
        <walk depart="29904.00" departPos="27.94" arrival="30279.00" arrivalPos="184.55" duration="375.00" routeLength="464.37" timeLoss="38.41" maxSpeed="1.38"/>
        <ride waitingTime="349.00" vehicle="taxi18" depart="30628.00" arrival="30815.00" arrivalPos="15.00" duration="187.00" routeLength="2633.35" timeLoss="26.41"/>
        <walk depart="30815.00" departPos="15.00" arrival="30827.00" arrivalPos="1.24" duration="12.00" routeLength="13.76" timeLoss="2.03" maxSpeed="1.38"/>
    </personinfo>
    <personinfo id="tp129" depart="29903.27" type="DEFAULT_PEDTYPE">
        <walk depart="29904.00" departPos="3.25" arrival="30260.00" arrivalPos="184.55" duration="356.00" routeLength="439.68" timeLoss="36.39" maxSpeed="1.38"/>
        <ride waitingTime="409.00" vehicle="taxi62" depart="30669.00" arrival="30852.00" arrivalPos="15.00" duration="183.00" routeLength="2632.55" timeLoss="29.59"/>
        <walk depart="30852.00" departPos="15.00" arrival="30864.00" arrivalPos="1.24" duration="12.00" routeLength="13.76" timeLoss="2.00" maxSpeed="1.38"/>
    </personinfo>
    <personinfo id="th138" depart="30205.95" type="DEFAULT_PEDTYPE">
        <walk depart="30206.00" departPos="0.74" arrival="30211.00" arrivalPos="5.29" duration="5.00" routeLength="25.95" timeLoss="-12.69" maxSpeed="1.47"/>
        <ride waitingTime="386.00" vehicle="taxi71" depart="30597.00" arrival="30864.00" arrivalPos="10.00" duration="267.00" routeLength="4203.08" timeLoss="34.44"/>
        <walk depart="30864.00" departPos="10.00" arrival="30872.00" arrivalPos="20.38" duration="8.00" routeLength="10.38" timeLoss="0.93" maxSpeed="1.47"/>
    </personinfo>
    <personinfo id="tn26" depart="29784.39" type="DEFAULT_PEDTYPE">
        <walk depart="29785.00" departPos="13.18" arrival="29991.00" arrivalPos="2.55" duration="206.00" routeLength="297.43" timeLoss="13.81" maxSpeed="1.55"/>
        <ride waitingTime="46.00" vehicle="taxi80" depart="30037.00" arrival="30307.00" arrivalPos="10.67" duration="270.00" routeLength="4463.69" timeLoss="32.81"/>
        <walk depart="30307.00" departPos="10.67" arrival="30949.00" arrivalPos="36.60" duration="642.00" routeLength="946.46" timeLoss="30.42" maxSpeed="1.55"/>
    </personinfo>
    <personinfo id="th32" depart="28958.69" type="DEFAULT_PEDTYPE">
        <walk depart="28959.00" departPos="61.90" arrival="28997.00" arrivalPos="15.53" duration="38.00" routeLength="46.37" timeLoss="3.79" maxSpeed="1.36"/>
        <ride waitingTime="692.00" vehicle="taxi82" depart="29689.00" arrival="30941.00" arrivalPos="5.00" duration="1252.00" routeLength="24309.52" timeLoss="71.20"/>
        <walk depart="30941.00" departPos="5.00" arrival="30960.00" arrivalPos="24.95" duration="19.00" routeLength="40.62" timeLoss="-10.97" maxSpeed="1.36"/>
    </personinfo>
    <personinfo id="th26" depart="29784.39" type="DEFAULT_PEDTYPE">
        <walk depart="29785.00" departPos="16.98" arrival="30019.00" arrivalPos="2.55" duration="234.00" routeLength="301.22" timeLoss="16.21" maxSpeed="1.38"/>
        <ride waitingTime="50.00" vehicle="taxi71" depart="30069.00" arrival="30351.00" arrivalPos="10.67" duration="282.00" routeLength="4463.65" timeLoss="37.42"/>
        <walk depart="30351.00" departPos="10.67" arrival="31069.00" arrivalPos="36.60" duration="718.00" routeLength="946.46" timeLoss="33.69" maxSpeed="1.38"/>
    </personinfo>
    <personinfo id="d115" depart="30649.67" type="DEFAULT_PEDTYPE">
        <walk depart="30650.00" departPos="6.39" arrival="30656.00" arrivalPos="15.00" duration="6.00" routeLength="8.61" timeLoss="0.46" maxSpeed="1.56"/>
        <ride waitingTime="248.00" vehicle="taxi18" depart="30904.00" arrival="31030.00" arrivalPos="9.76" duration="126.00" routeLength="1525.90" timeLoss="21.93"/>
        <walk depart="31030.00" departPos="9.76" arrival="31072.00" arrivalPos="27.61" duration="42.00" routeLength="70.61" timeLoss="-3.39" maxSpeed="1.56"/>
    </personinfo>
    <personinfo id="tn64" depart="29217.29" type="DEFAULT_PEDTYPE">
        <walk depart="29218.00" departPos="4.69" arrival="29715.00" arrivalPos="18.71" duration="497.00" routeLength="707.12" timeLoss="19.17" maxSpeed="1.48"/>
        <ride waitingTime="51.00" vehicle="taxi1" depart="29766.00" arrival="30620.00" arrivalPos="4.99" duration="854.00" routeLength="12626.87" timeLoss="88.98"/>
        <walk depart="30620.00" departPos="4.99" arrival="31125.00" arrivalPos="108.49" duration="505.00" routeLength="703.51" timeLoss="29.61" maxSpeed="1.48"/>
    </personinfo>
    <personinfo id="tp26" depart="29784.39" type="DEFAULT_PEDTYPE">
        <walk depart="29785.00" departPos="18.62" arrival="30046.00" arrivalPos="2.55" duration="261.00" routeLength="302.86" timeLoss="20.17" maxSpeed="1.26"/>
        <ride waitingTime="52.00" vehicle="taxi62" depart="30098.00" arrival="30374.00" arrivalPos="10.67" duration="276.00" routeLength="4463.69" timeLoss="36.11"/>
        <walk depart="30374.00" departPos="10.67" arrival="31164.00" arrivalPos="36.60" duration="790.00" routeLength="946.46" timeLoss="37.37" maxSpeed="1.26"/>
    </personinfo>
    <personinfo id="d66" depart="30056.12" type="DEFAULT_PEDTYPE">
        <walk depart="30057.00" departPos="8.79" arrival="30064.00" arrivalPos="15.00" duration="7.00" routeLength="6.21" timeLoss="1.74" maxSpeed="1.18"/>
        <ride waitingTime="486.00" vehicle="taxi54" depart="30550.00" arrival="31173.00" arrivalPos="27.49" duration="623.00" routeLength="11139.25" timeLoss="70.09"/>
        <walk depart="31173.00" departPos="27.49" arrival="31213.00" arrivalPos="14.16" duration="40.00" routeLength="44.87" timeLoss="1.99" maxSpeed="1.18"/>
    </personinfo>
    <personinfo id="tp32" depart="28958.69" type="DEFAULT_PEDTYPE">
        <walk depart="28959.00" departPos="14.52" arrival="28960.00" arrivalPos="15.53" duration="1.00" routeLength="1.01" timeLoss="0.28" maxSpeed="1.40"/>
        <ride waitingTime="929.00" vehicle="taxi81" depart="29889.00" arrival="31232.00" arrivalPos="4.99" duration="1343.00" routeLength="24788.36" timeLoss="91.70"/>
        <walk depart="31232.00" departPos="4.99" arrival="31254.00" arrivalPos="24.95" duration="22.00" routeLength="40.62" timeLoss="-7.04" maxSpeed="1.40"/>
    </personinfo>
    <personinfo id="tn32" depart="28958.69" type="DEFAULT_PEDTYPE">
        <walk depart="28959.00" departPos="0.84" arrival="28973.00" arrivalPos="15.53" duration="14.00" routeLength="14.69" timeLoss="1.71" maxSpeed="1.20"/>
        <ride waitingTime="990.00" vehicle="taxi81" depart="29963.00" arrival="31232.00" arrivalPos="4.99" duration="1269.00" routeLength="24308.71" timeLoss="76.36"/>
        <walk depart="31232.00" departPos="4.99" arrival="31258.00" arrivalPos="19.95" duration="26.00" routeLength="45.62" timeLoss="-12.16" maxSpeed="1.20"/>
    </personinfo>
    <personinfo id="tn48" depart="30772.95" type="DEFAULT_PEDTYPE">
        <walk depart="30773.00" departPos="8.53" arrival="30827.00" arrivalPos="10.67" duration="54.00" routeLength="63.61" timeLoss="7.89" maxSpeed="1.38"/>
        <ride waitingTime="108.00" vehicle="taxi63" depart="30935.00" arrival="31344.00" arrivalPos="10.00" duration="409.00" routeLength="6721.42" timeLoss="46.17"/>
        <walk depart="31344.00" departPos="10.00" arrival="31351.00" arrivalPos="1.20" duration="7.00" routeLength="8.80" timeLoss="0.62" maxSpeed="1.38"/>
    </personinfo>
    <personinfo id="tn68" depart="30891.43" type="DEFAULT_PEDTYPE">
        <walk depart="30892.00" departPos="0.10" arrival="30900.00" arrivalPos="6.12" duration="8.00" routeLength="8.89" timeLoss="1.29" maxSpeed="1.33"/>
        <ride waitingTime="411.00" vehicle="taxi18" depart="31311.00" arrival="31465.00" arrivalPos="102.22" duration="154.00" routeLength="2587.74" timeLoss="28.22"/>
        <walk depart="31465.00" departPos="102.22" arrival="31519.00" arrivalPos="0.15" duration="54.00" routeLength="63.58" timeLoss="6.02" maxSpeed="1.33"/>
    </personinfo>
    <personinfo id="th109" depart="30649.67" type="DEFAULT_PEDTYPE">
        <walk depart="30650.00" departPos="8.14" arrival="30886.00" arrivalPos="5.29" duration="236.00" routeLength="338.53" timeLoss="2.59" maxSpeed="1.45"/>
        <ride waitingTime="399.00" vehicle="taxi18" depart="31285.00" arrival="31641.00" arrivalPos="7.50" duration="356.00" routeLength="3876.53" timeLoss="65.70"/>
        <walk depart="31641.00" departPos="7.50" arrival="31682.00" arrivalPos="14.92" duration="41.00" routeLength="56.05" timeLoss="2.35" maxSpeed="1.45"/>
    </personinfo>
    <personinfo id="tp109" depart="30649.67" type="DEFAULT_PEDTYPE">
        <walk depart="30650.00" departPos="0.64" arrival="30898.00" arrivalPos="5.29" duration="248.00" routeLength="346.03" timeLoss="-1.30" maxSpeed="1.39"/>
        <ride waitingTime="401.00" vehicle="taxi18" depart="31299.00" arrival="31641.00" arrivalPos="7.50" duration="342.00" routeLength="3842.62" timeLoss="58.10"/>
        <walk depart="31641.00" departPos="7.50" arrival="31685.00" arrivalPos="14.92" duration="44.00" routeLength="56.05" timeLoss="3.62" maxSpeed="1.39"/>
    </personinfo>
    <personinfo id="th153" depart="30962.87" type="DEFAULT_PEDTYPE">
        <walk depart="30963.00" departPos="94.78" arrival="31528.00" arrivalPos="184.55" duration="565.00" routeLength="736.53" timeLoss="79.05" maxSpeed="1.52"/>
        <ride waitingTime="108.00" vehicle="taxi55" depart="31636.00" arrival="31818.00" arrivalPos="15.00" duration="182.00" routeLength="2633.35" timeLoss="26.57"/>
        <walk depart="31818.00" departPos="15.00" arrival="31829.00" arrivalPos="0.17" duration="11.00" routeLength="14.83" timeLoss="1.22" maxSpeed="1.52"/>
    </personinfo>
    <personinfo id="tp153" depart="30962.87" type="DEFAULT_PEDTYPE">
        <walk depart="30963.00" departPos="68.06" arrival="31527.00" arrivalPos="184.55" duration="564.00" routeLength="709.81" timeLoss="39.62" maxSpeed="1.35"/>
        <ride waitingTime="56.00" vehicle="taxi55" depart="31583.00" arrival="31818.00" arrivalPos="15.00" duration="235.00" routeLength="3207.66" timeLoss="51.25"/>
        <walk depart="31818.00" departPos="15.00" arrival="31831.00" arrivalPos="0.17" duration="13.00" routeLength="14.83" timeLoss="2.04" maxSpeed="1.35"/>
    </personinfo>
    <personinfo id="th65" depart="29217.29" type="DEFAULT_PEDTYPE">
        <walk depart="29218.00" departPos="4.17" arrival="29739.00" arrivalPos="18.71" duration="521.00" routeLength="707.63" timeLoss="17.22" maxSpeed="1.40"/>
        <ride waitingTime="27.00" vehicle="taxi1" depart="29766.00" arrival="31208.00" arrivalPos="93.33" duration="1442.00" routeLength="22068.77" timeLoss="131.35"/>
        <walk depart="31208.00" departPos="93.33" arrival="31945.00" arrivalPos="16.12" duration="737.00" routeLength="939.66" timeLoss="68.04" maxSpeed="1.40"/>
    </personinfo>
    <personinfo id="th156" depart="31417.42" type="DEFAULT_PEDTYPE">
        <walk depart="31418.00" departPos="20.94" arrival="31446.00" arrivalPos="7.50" duration="28.00" routeLength="39.33" timeLoss="-5.81" maxSpeed="1.16"/>
        <ride waitingTime="428.00" vehicle="taxi54" depart="31874.00" arrival="32027.00" arrivalPos="15.00" duration="153.00" routeLength="1482.70" timeLoss="24.10"/>
        <walk depart="32027.00" departPos="15.00" arrival="32029.00" arrivalPos="13.22" duration="2.00" routeLength="1.78" timeLoss="0.47" maxSpeed="1.16"/>
    </personinfo>
    <personinfo id="tp156" depart="31417.42" type="DEFAULT_PEDTYPE">
        <walk depart="31418.00" departPos="6.40" arrival="31429.00" arrivalPos="7.50" duration="11.00" routeLength="24.79" timeLoss="-5.94" maxSpeed="1.46"/>
        <ride waitingTime="445.00" vehicle="taxi54" depart="31874.00" arrival="32027.00" arrivalPos="15.00" duration="153.00" routeLength="1482.70" timeLoss="24.10"/>
        <walk depart="32027.00" departPos="15.00" arrival="32029.00" arrivalPos="13.22" duration="2.00" routeLength="1.78" timeLoss="0.78" maxSpeed="1.46"/>
    </personinfo>
    <personinfo id="d57" depart="30960.73" type="DEFAULT_PEDTYPE">
        <walk depart="30961.00" departPos="26.12" arrival="30972.00" arrivalPos="15.00" duration="11.00" routeLength="11.12" timeLoss="1.63" maxSpeed="1.19"/>
        <ride waitingTime="518.00" vehicle="taxi63" depart="31490.00" arrival="32115.00" arrivalPos="7.50" duration="625.00" routeLength="10733.34" timeLoss="78.04"/>
        <walk depart="32115.00" departPos="7.50" arrival="32128.00" arrivalPos="21.47" duration="13.00" routeLength="13.97" timeLoss="1.23" maxSpeed="1.19"/>
    </personinfo>
    <personinfo id="th89" depart="31346.34" type="DEFAULT_PEDTYPE">
        <walk depart="31347.00" departPos="31.35" arrival="31477.00" arrivalPos="9.76" duration="130.00" routeLength="147.49" timeLoss="4.08" maxSpeed="1.17"/>
        <ride waitingTime="97.00" vehicle="taxi65" depart="31574.00" arrival="32133.00" arrivalPos="27.49" duration="559.00" routeLength="9554.01" timeLoss="57.26"/>
        <walk depart="32133.00" departPos="27.49" arrival="32172.00" arrivalPos="12.82" duration="39.00" routeLength="43.53" timeLoss="1.83" maxSpeed="1.17"/>
    </personinfo>
    <personinfo id="tp89" depart="31346.34" type="DEFAULT_PEDTYPE">
        <walk depart="31347.00" departPos="27.18" arrival="31457.00" arrivalPos="9.76" duration="110.00" routeLength="151.66" timeLoss="6.26" maxSpeed="1.46"/>
        <ride waitingTime="117.00" vehicle="taxi65" depart="31574.00" arrival="32133.00" arrivalPos="27.49" duration="559.00" routeLength="9554.01" timeLoss="57.26"/>
        <walk depart="32133.00" departPos="27.49" arrival="32172.00" arrivalPos="12.82" duration="39.00" routeLength="43.53" timeLoss="9.23" maxSpeed="1.46"/>
    </personinfo>
    <personinfo id="d29" depart="29784.39" type="DEFAULT_PEDTYPE">
        <walk depart="29785.00" departPos="25.33" arrival="29793.00" arrivalPos="15.00" duration="8.00" routeLength="10.33" timeLoss="1.35" maxSpeed="1.55"/>
        <ride waitingTime="292.00" vehicle="taxi72" depart="30085.00" arrival="32293.00" arrivalPos="7.50" duration="2208.00" routeLength="31261.26" timeLoss="196.93"/>
        <walk depart="32293.00" departPos="7.50" arrival="32315.00" arrivalPos="22.78" duration="22.00" routeLength="40.70" timeLoss="-4.21" maxSpeed="1.55"/>
    </personinfo>
    <personinfo id="d141" depart="31854.41" type="DEFAULT_PEDTYPE">
        <walk depart="31855.00" departPos="18.69" arrival="31862.00" arrivalPos="10.00" duration="7.00" routeLength="8.69" timeLoss="1.36" maxSpeed="1.54"/>
        <ride waitingTime="254.00" vehicle="taxi54" depart="32116.00" arrival="32268.00" arrivalPos="26.09" duration="152.00" routeLength="1864.75" timeLoss="27.27"/>
        <walk depart="32268.00" departPos="26.09" arrival="32326.00" arrivalPos="36.77" duration="58.00" routeLength="83.57" timeLoss="3.76" maxSpeed="1.54"/>
    </personinfo>
    <personinfo id="th146" depart="32072.04" type="DEFAULT_PEDTYPE">
        <walk depart="32073.00" departPos="9.63" arrival="32076.00" arrivalPos="7.50" duration="3.00" routeLength="2.13" timeLoss="1.14" maxSpeed="1.15"/>
        <ride waitingTime="165.00" vehicle="taxi29" depart="32241.00" arrival="32454.00" arrivalPos="15.00" duration="213.00" routeLength="2284.51" timeLoss="26.76"/>
        <walk depart="32454.00" departPos="15.00" arrival="32456.00" arrivalPos="12.94" duration="2.00" routeLength="2.06" timeLoss="0.21" maxSpeed="1.15"/>
    </personinfo>
    <personinfo id="th63" depart="30915.84" type="DEFAULT_PEDTYPE">
        <walk depart="30916.00" departPos="38.76" arrival="31320.00" arrivalPos="87.83" duration="404.00" routeLength="545.54" timeLoss="33.32" maxSpeed="1.47"/>
        <ride waitingTime="132.00" vehicle="taxi71" depart="31452.00" arrival="32518.00" arrivalPos="7.50" duration="1066.00" routeLength="18611.29" timeLoss="106.60"/>
        <walk depart="32518.00" departPos="7.50" arrival="32611.00" arrivalPos="7.10" duration="93.00" routeLength="126.94" timeLoss="6.75" maxSpeed="1.47"/>
    </personinfo>
    <personinfo id="tp146" depart="32072.04" type="DEFAULT_PEDTYPE">
        <walk depart="32073.00" departPos="200.24" arrival="32221.00" arrivalPos="7.50" duration="148.00" routeLength="192.74" timeLoss="13.58" maxSpeed="1.43"/>
        <ride waitingTime="171.00" vehicle="taxi56" depart="32392.00" arrival="32609.00" arrivalPos="15.00" duration="217.00" routeLength="2285.31" timeLoss="26.63"/>
        <walk depart="32609.00" departPos="15.00" arrival="32611.00" arrivalPos="12.94" duration="2.00" routeLength="2.06" timeLoss="0.56" maxSpeed="1.43"/>
    </personinfo>
    <personinfo id="tp63" depart="30915.84" type="DEFAULT_PEDTYPE">
        <walk depart="30916.00" departPos="46.10" arrival="31318.00" arrivalPos="87.83" duration="402.00" routeLength="552.88" timeLoss="32.87" maxSpeed="1.50"/>
        <ride waitingTime="134.00" vehicle="taxi71" depart="31452.00" arrival="32518.00" arrivalPos="7.50" duration="1066.00" routeLength="18611.29" timeLoss="106.60"/>
        <walk depart="32518.00" departPos="7.50" arrival="32613.00" arrivalPos="7.10" duration="95.00" routeLength="126.94" timeLoss="10.25" maxSpeed="1.50"/>
    </personinfo>
    <personinfo id="tp65" depart="29217.29" type="DEFAULT_PEDTYPE">
        <walk depart="29218.00" departPos="1.71" arrival="29842.00" arrivalPos="18.71" duration="624.00" routeLength="710.09" timeLoss="24.52" maxSpeed="1.18"/>
        <ride waitingTime="707.00" vehicle="taxi72" depart="30549.00" arrival="31788.00" arrivalPos="93.33" duration="1239.00" routeLength="19745.65" timeLoss="98.93"/>
        <walk depart="31788.00" departPos="93.33" arrival="32658.00" arrivalPos="16.12" duration="870.00" routeLength="939.66" timeLoss="76.72" maxSpeed="1.18"/>
    </personinfo>
    <personinfo id="d35" depart="31079.74" type="DEFAULT_PEDTYPE">
        <walk depart="31080.00" departPos="23.65" arrival="31088.00" arrivalPos="15.00" duration="8.00" routeLength="8.65" timeLoss="1.12" maxSpeed="1.26"/>
        <ride waitingTime="430.00" vehicle="taxi63" depart="31518.00" arrival="32539.00" arrivalPos="4.18" duration="1021.00" routeLength="17671.47" timeLoss="96.51"/>
        <walk depart="32539.00" departPos="4.18" arrival="32678.00" arrivalPos="1.00" duration="139.00" routeLength="179.38" timeLoss="-3.62" maxSpeed="1.26"/>
    </personinfo>
    <personinfo id="d112" depart="32394.65" type="DEFAULT_PEDTYPE">
        <walk depart="32395.00" departPos="22.96" arrival="32408.00" arrivalPos="10.00" duration="13.00" routeLength="12.96" timeLoss="1.98" maxSpeed="1.18"/>
        <ride waitingTime="39.00" vehicle="taxi55" depart="32447.00" arrival="32620.00" arrivalPos="37.32" duration="173.00" routeLength="2064.54" timeLoss="31.58"/>
        <walk depart="32620.00" departPos="37.32" arrival="32768.00" arrivalPos="2.94" duration="148.00" routeLength="161.04" timeLoss="11.00" maxSpeed="1.18"/>
    </personinfo>
    <personinfo id="d91" depart="32165.36" type="DEFAULT_PEDTYPE">
        <walk depart="32166.00" departPos="24.27" arrival="32173.00" arrivalPos="15.00" duration="7.00" routeLength="9.27" timeLoss="1.29" maxSpeed="1.62"/>
        <ride waitingTime="53.00" vehicle="taxi0" depart="32226.00" arrival="32686.00" arrivalPos="15.53" duration="460.00" routeLength="6645.02" timeLoss="73.81"/>
        <walk depart="32686.00" departPos="15.53" arrival="32785.00" arrivalPos="33.80" duration="99.00" routeLength="146.19" timeLoss="8.93" maxSpeed="1.62"/>
    </personinfo>
    <personinfo id="d144" depart="32585.92" type="DEFAULT_PEDTYPE">
        <walk depart="32586.00" departPos="18.83" arrival="32589.00" arrivalPos="15.00" duration="3.00" routeLength="3.83" timeLoss="0.36" maxSpeed="1.45"/>
        <ride waitingTime="38.00" vehicle="taxi62" depart="32627.00" arrival="32761.00" arrivalPos="46.08" duration="134.00" routeLength="1632.89" timeLoss="21.84"/>
        <walk depart="32761.00" departPos="46.08" arrival="32800.00" arrivalPos="70.72" duration="39.00" routeLength="53.87" timeLoss="1.89" maxSpeed="1.45"/>
    </personinfo>
    <personinfo id="th136" depart="32421.41" type="DEFAULT_PEDTYPE">
        <walk depart="32422.00" departPos="2.91" arrival="32623.00" arrivalPos="37.39" duration="201.00" routeLength="263.32" timeLoss="16.44" maxSpeed="1.43"/>
        <ride waitingTime="48.00" vehicle="taxi38" depart="32671.00" arrival="32866.00" arrivalPos="15.00" duration="195.00" routeLength="2294.50" timeLoss="41.68"/>
        <walk depart="32866.00" departPos="15.00" arrival="32871.00" arrivalPos="9.21" duration="5.00" routeLength="5.79" timeLoss="0.94" maxSpeed="1.43"/>
    </personinfo>