<?xml version="1.0" encoding="UTF-8"?>

<!-- generated by Eclipse SUMO sumo Version 1.12.0
<configuration xmlns:xsi="http://www.w3.org/2001/XMLSchema-instance" xsi:noNamespaceSchemaLocation="http://sumo.dlr.de/xsd/sumoConfiguration.xsd">

    <input>
        <net-file value="\\FLOS-NG-PC\sumo\maloja\simple.net.xml"/>
        <route-files value="\\FLOS-NG-PC\sumo\maloja\09_daytrips\persontrips_maloja_daytrips_resolved_offseason_taxi.rou.xml,\\FLOS-NG-PC\sumo\maloja\11_hotel\persontrips_maloja_hotel_resolved_offseason_taxi.rou.xml,\\FLOS-NG-PC\sumo\maloja\12_non_hotel\persontrips_maloja_non_hotel_resolved_offseason_taxi.rou.xml,\\FLOS-NG-PC\sumo\maloja\13_private\persontrips_maloja_private_resolved_offseason_taxi.rou.xml"/>
        <additional-files value="\\FLOS-NG-PC\sumo\maloja\03_bus\virtualstop.add.xml,\\FLOS-NG-PC\sumo\maloja\03_bus\03_November\gtfs_pt_stops.add.xml,drt_fleet.xml,drt_parking.add.xml,drt_parking_rerouter.add.xml"/>
    </input>

    <output>
        <tripinfo-output value="tripinfos_drt.xml"/>
        <tripinfo-output.write-unfinished value="true"/>
        <stop-output value="stopinfos_drt.xml"/>
        <statistic-output value="stats_drt.xml"/>
    </output>

    <time>
        <begin value="20520"/>
        <end value="77400"/>
    </time>

    <routing>
        <routing-algorithm value="CH"/>
        <persontrip.transfer.taxi-walk value="ptStops"/>
        <persontrip.transfer.walk-taxi value="ptStops"/>
    </routing>

    <report>
        <verbose value="true"/>
        <log value="simulation.log.txt"/>
        <error-log value="sumo_error.log"/>
        <duration-log.statistics value="true"/>
    </report>

    <taxi_device>
        <device.taxi.dispatch-algorithm value="traci"/>
    </taxi_device>

    <traci_server>
        <remote-port value="49893"/>
    </traci_server>

</configuration>
-->

<tripinfos xmlns:xsi="http://www.w3.org/2001/XMLSchema-instance" xsi:noNamespaceSchemaLocation="http://sumo.dlr.de/xsd/tripinfo_file.xsd">
    <personinfo id="d92" depart="29122.82" type="DEFAULT_PEDTYPE">
        <walk depart="29123.00" departPos="10.91" arrival="29127.00" arrivalPos="15.00" duration="4.00" routeLength="4.09" timeLoss="0.96" maxSpeed="1.34"/>
        <ride waitingTime="42.00" vehicle="taxi90" depart="29169.00" arrival="29568.00" arrivalPos="13.24" duration="399.00" routeLength="6663.45" timeLoss="43.07"/>
        <walk depart="29568.00" departPos="13.24" arrival="29609.00" arrivalPos="0.67" duration="41.00" routeLength="47.62" timeLoss="5.58" maxSpeed="1.34"/>
    </personinfo>
    <personinfo id="d89" depart="29197.95" type="DEFAULT_PEDTYPE">
        <walk depart="29198.00" departPos="4.83" arrival="29206.00" arrivalPos="15.00" duration="8.00" routeLength="10.17" timeLoss="1.50" maxSpeed="1.56"/>
        <ride waitingTime="52.00" vehicle="taxi72" depart="29258.00" arrival="29681.00" arrivalPos="524.38" duration="423.00" routeLength="7115.34" timeLoss="46.17"/>
        <walk depart="29681.00" departPos="524.38" arrival="29706.00" arrivalPos="23.98" duration="25.00" routeLength="38.11" timeLoss="0.62" maxSpeed="1.56"/>
    </personinfo>
    <personinfo id="tp122" depart="28979.52" type="DEFAULT_PEDTYPE">
        <walk depart="28980.00" departPos="0.56" arrival="28995.00" arrivalPos="18.71" duration="15.00" routeLength="18.15" timeLoss="1.63" maxSpeed="1.36"/>
        <ride waitingTime="57.00" vehicle="taxi64" depart="29052.00" arrival="29448.00" arrivalPos="45.55" duration="396.00" routeLength="3978.00" timeLoss="40.86"/>
        <walk depart="29448.00" departPos="45.55" arrival="29886.00" arrivalPos="105.14" duration="438.00" routeLength="553.33" timeLoss="30.41" maxSpeed="1.36"/>
    </personinfo>
    <personinfo id="tn85" depart="28889.60" type="DEFAULT_PEDTYPE">
        <walk depart="28890.00" departPos="4.46" arrival="29266.00" arrivalPos="553.86" duration="376.00" routeLength="529.27" timeLoss="42.33" maxSpeed="1.59"/>
        <ride waitingTime="393.00" vehicle="taxi64" depart="29659.00" arrival="29889.00" arrivalPos="25.00" duration="230.00" routeLength="3011.61" timeLoss="33.05"/>
        <walk depart="29889.00" departPos="25.00" arrival="29890.00" arrivalPos="25.50" duration="1.00" routeLength="0.50" timeLoss="0.69" maxSpeed="1.59"/>
    </personinfo>
    <personinfo id="th83" depart="29197.95" type="DEFAULT_PEDTYPE">
        <walk depart="29198.00" departPos="40.87" arrival="29349.00" arrivalPos="23.94" duration="151.00" routeLength="223.57" timeLoss="0.94" maxSpeed="1.49"/>
        <ride waitingTime="70.00" vehicle="taxi11" depart="29419.00" arrival="29877.00" arrivalPos="15.00" duration="458.00" routeLength="8604.64" timeLoss="48.58"/>
        <walk depart="29877.00" departPos="15.00" arrival="29890.00" arrivalPos="1.99" duration="13.00" routeLength="20.20" timeLoss="-0.56" maxSpeed="1.49"/>
    </personinfo>
    <personinfo id="tp83" depart="29197.95" type="DEFAULT_PEDTYPE">
        <walk depart="29198.00" departPos="99.19" arrival="29303.00" arrivalPos="23.94" duration="105.00" routeLength="165.26" timeLoss="-6.74" maxSpeed="1.48"/>
        <ride waitingTime="74.00" vehicle="taxi11" depart="29377.00" arrival="29877.00" arrivalPos="15.00" duration="500.00" routeLength="8976.22" timeLoss="61.91"/>
        <walk depart="29877.00" departPos="15.00" arrival="29891.00" arrivalPos="1.99" duration="14.00" routeLength="20.20" timeLoss="0.34" maxSpeed="1.48"/>
    </personinfo>
    <personinfo id="d128" depart="28979.52" type="DEFAULT_PEDTYPE">
        <walk depart="28980.00" departPos="19.31" arrival="28987.00" arrivalPos="10.00" duration="7.00" routeLength="9.31" timeLoss="1.14" maxSpeed="1.59"/>
        <ride waitingTime="398.00" vehicle="taxi82" depart="29385.00" arrival="29569.00" arrivalPos="45.55" duration="184.00" routeLength="2626.38" timeLoss="26.65"/>
        <walk depart="29569.00" departPos="45.55" arrival="29942.00" arrivalPos="105.14" duration="373.00" routeLength="553.33" timeLoss="24.71" maxSpeed="1.59"/>
    </personinfo>
    <personinfo id="d56" depart="28921.78" type="DEFAULT_PEDTYPE">
        <walk depart="28922.00" departPos="0.38" arrival="28936.00" arrivalPos="15.00" duration="14.00" routeLength="14.62" timeLoss="1.77" maxSpeed="1.20"/>
        <ride waitingTime="54.00" vehicle="taxi81" depart="28990.00" arrival="29582.00" arrivalPos="15.00" duration="592.00" routeLength="10570.68" timeLoss="66.62"/>
        <walk depart="29582.00" departPos="15.00" arrival="29947.00" arrivalPos="62.06" duration="365.00" routeLength="452.97" timeLoss="-13.87" maxSpeed="1.20"/>
    </personinfo>
    <personinfo id="th122" depart="28979.52" type="DEFAULT_PEDTYPE">
        <walk depart="28980.00" departPos="14.78" arrival="28984.00" arrivalPos="18.71" duration="4.00" routeLength="3.93" timeLoss="1.02" maxSpeed="1.32"/>
        <ride waitingTime="32.00" vehicle="taxi82" depart="29016.00" arrival="29569.00" arrivalPos="45.55" duration="553.00" routeLength="5699.35" timeLoss="74.90"/>
        <walk depart="29569.00" departPos="45.55" arrival="30019.00" arrivalPos="105.14" duration="450.00" routeLength="553.33" timeLoss="30.07" maxSpeed="1.32"/>
    </personinfo>
    <personinfo id="tn81" depart="29197.95" type="DEFAULT_PEDTYPE">
        <walk depart="29198.00" departPos="6.21" arrival="29379.00" arrivalPos="23.94" duration="181.00" routeLength="258.23" timeLoss="1.27" maxSpeed="1.44"/>
        <ride waitingTime="527.00" vehicle="taxi90" depart="29906.00" arrival="30039.00" arrivalPos="25.00" duration="133.00" routeLength="1699.73" timeLoss="19.56"/>
        <walk depart="30039.00" departPos="25.00" arrival="30150.00" arrivalPos="0.24" duration="111.00" routeLength="143.26" timeLoss="11.29" maxSpeed="1.44"/>
    </personinfo>
    <personinfo id="d145" depart="30205.95" type="DEFAULT_PEDTYPE">
        <walk depart="30206.00" departPos="26.61" arrival="30215.00" arrivalPos="15.00" duration="9.00" routeLength="11.61" timeLoss="0.92" maxSpeed="1.44"/>
        <ride waitingTime="35.00" vehicle="taxi63" depart="30250.00" arrival="30387.00" arrivalPos="53.58" duration="137.00" routeLength="1640.39" timeLoss="22.17"/>
        <walk depart="30387.00" departPos="53.58" arrival="30472.00" arrivalPos="18.64" duration="85.00" routeLength="43.59" timeLoss="54.68" maxSpeed="1.44"/>
    </personinfo>
    <personinfo id="d136" depart="29903.27" type="DEFAULT_PEDTYPE">
        <walk depart="29904.00" departPos="25.65" arrival="29914.00" arrivalPos="15.00" duration="10.00" routeLength="10.65" timeLoss="1.47" maxSpeed="1.25"/>
        <ride waitingTime="188.00" vehicle="taxi90" depart="30102.00" arrival="30375.00" arrivalPos="25.48" duration="273.00" routeLength="3577.61" timeLoss="43.38"/>
        <walk depart="30375.00" departPos="25.48" arrival="30634.00" arrivalPos="1.56" duration="259.00" routeLength="307.54" timeLoss="12.62" maxSpeed="1.25"/>
    </personinfo>
    <personinfo id="th129" depart="29903.27" type="DEFAULT_PEDTYPE">
        <walk depart="29904.00" departPos="0.29" arrival="30295.00" arrivalPos="184.55" duration="391.00" routeLength="436.73" timeLoss="40.40" maxSpeed="1.25"/>
        <ride waitingTime="322.00" vehicle="taxi63" depart="30617.00" arrival="30802.00" arrivalPos="25.00" duration="185.00" routeLength="2638.36" timeLoss="28.31"/>
        <walk depart="30802.00" departPos="25.00" arrival="30824.00" arrivalPos="1.24" duration="22.00" routeLength="23.76" timeLoss="2.93" maxSpeed="1.25"/>
    </personinfo>
    <personinfo id="tp129" depart="29903.27" type="DEFAULT_PEDTYPE">
        <walk depart="29904.00" departPos="17.93" arrival="30365.00" arrivalPos="184.55" duration="461.00" routeLength="454.37" timeLoss="47.88" maxSpeed="1.10"/>
        <ride waitingTime="252.00" vehicle="taxi63" depart="30617.00" arrival="30802.00" arrivalPos="25.00" duration="185.00" routeLength="2638.36" timeLoss="28.31"/>
        <walk depart="30802.00" departPos="25.00" arrival="30827.00" arrivalPos="1.24" duration="25.00" routeLength="23.76" timeLoss="3.40" maxSpeed="1.10"/>
    </personinfo>
    <personinfo id="th138" depart="30205.95" type="DEFAULT_PEDTYPE">
        <walk depart="30206.00" departPos="0.32" arrival="30212.00" arrivalPos="5.29" duration="6.00" routeLength="25.53" timeLoss="-16.56" maxSpeed="1.13"/>
        <ride waitingTime="463.00" vehicle="taxi80" depart="30675.00" arrival="30937.00" arrivalPos="20.00" duration="262.00" routeLength="4209.92" timeLoss="36.25"/>
        <walk depart="30937.00" departPos="20.00" arrival="30938.00" arrivalPos="20.38" duration="1.00" routeLength="0.38" timeLoss="0.66" maxSpeed="1.13"/>
    </personinfo>
    <personinfo id="tp138" depart="30205.95" type="DEFAULT_PEDTYPE">
        <walk depart="30206.00" departPos="1.06" arrival="30213.00" arrivalPos="5.29" duration="7.00" routeLength="26.27" timeLoss="-13.27" maxSpeed="1.30"/>
        <ride waitingTime="462.00" vehicle="taxi80" depart="30675.00" arrival="30937.00" arrivalPos="20.00" duration="262.00" routeLength="4209.92" timeLoss="36.25"/>
        <walk depart="30937.00" departPos="20.00" arrival="30939.00" arrivalPos="20.38" duration="2.00" routeLength="0.38" timeLoss="1.71" maxSpeed="1.30"/>
    </personinfo>
    <personinfo id="d66" depart="30056.12" type="DEFAULT_PEDTYPE">
        <walk depart="30057.00" departPos="26.56" arrival="30068.00" arrivalPos="15.00" duration="11.00" routeLength="11.56" timeLoss="0.91" maxSpeed="1.14"/>
        <ride waitingTime="62.00" vehicle="taxi90" depart="30130.00" arrival="30911.00" arrivalPos="34.99" duration="781.00" routeLength="11755.52" timeLoss="89.62"/>
        <walk depart="30911.00" departPos="34.99" arrival="30960.00" arrivalPos="14.16" duration="49.00" routeLength="52.37" timeLoss="3.26" maxSpeed="1.14"/>
    </personinfo>
    <personinfo id="d115" depart="30649.67" type="DEFAULT_PEDTYPE">
        <walk depart="30650.00" departPos="17.13" arrival="30652.00" arrivalPos="15.00" duration="2.00" routeLength="2.13" timeLoss="0.57" maxSpeed="1.49"/>
        <ride waitingTime="314.00" vehicle="taxi80" depart="30966.00" arrival="31086.00" arrivalPos="17.26" duration="120.00" routeLength="1533.40" timeLoss="20.21"/>
        <walk depart="31086.00" departPos="17.26" arrival="31137.00" arrivalPos="27.61" duration="51.00" routeLength="78.11" timeLoss="-1.29" maxSpeed="1.49"/>
    </personinfo>
    <personinfo id="tp26" depart="29784.39" type="DEFAULT_PEDTYPE">
        <walk depart="29785.00" departPos="77.67" arrival="30081.00" arrivalPos="2.55" duration="296.00" routeLength="361.92" timeLoss="24.77" maxSpeed="1.33"/>
        <ride waitingTime="46.00" vehicle="taxi89" depart="30127.00" arrival="30404.00" arrivalPos="18.17" duration="277.00" routeLength="4471.12" timeLoss="36.82"/>
        <walk depart="30404.00" departPos="18.17" arrival="31143.00" arrivalPos="36.60" duration="739.00" routeLength="938.96" timeLoss="35.31" maxSpeed="1.33"/>
    </personinfo>
    <personinfo id="tn26" depart="29784.39" type="DEFAULT_PEDTYPE">
        <walk depart="29785.00" departPos="84.16" arrival="30100.00" arrivalPos="2.55" duration="315.00" routeLength="368.41" timeLoss="27.64" maxSpeed="1.28"/>
        <ride waitingTime="60.00" vehicle="taxi80" depart="30160.00" arrival="30437.00" arrivalPos="18.17" duration="277.00" routeLength="4471.16" timeLoss="38.71"/>
        <walk depart="30437.00" departPos="18.17" arrival="31204.00" arrivalPos="36.60" duration="767.00" routeLength="938.96" timeLoss="34.61" maxSpeed="1.28"/>
    </personinfo>
    <personinfo id="tp32" depart="28958.69" type="DEFAULT_PEDTYPE">
        <walk depart="28959.00" departPos="36.78" arrival="28975.00" arrivalPos="15.53" duration="16.00" routeLength="21.25" timeLoss="2.06" maxSpeed="1.52"/>
        <ride waitingTime="946.00" vehicle="taxi81" depart="29921.00" arrival="31187.00" arrivalPos="6.18" duration="1266.00" routeLength="24305.75" timeLoss="75.49"/>
        <walk depart="31187.00" departPos="6.18" arrival="31207.00" arrivalPos="24.95" duration="20.00" routeLength="41.80" timeLoss="-7.43" maxSpeed="1.52"/>
    </personinfo>
    <personinfo id="th32" depart="28958.69" type="DEFAULT_PEDTYPE">
        <walk depart="28959.00" departPos="3.09" arrival="28971.00" arrivalPos="15.53" duration="12.00" routeLength="12.44" timeLoss="2.12" maxSpeed="1.26"/>
        <ride waitingTime="946.00" vehicle="taxi81" depart="29917.00" arrival="31187.00" arrivalPos="6.18" duration="1270.00" routeLength="24309.10" timeLoss="78.09"/>
        <walk depart="31187.00" departPos="6.18" arrival="31208.00" arrivalPos="24.95" duration="21.00" routeLength="41.80" timeLoss="-12.20" maxSpeed="1.26"/>
    </personinfo>
    <personinfo id="tn32" depart="28958.69" type="DEFAULT_PEDTYPE">
        <walk depart="28959.00" departPos="62.68" arrival="28994.00" arrivalPos="15.53" duration="35.00" routeLength="47.15" timeLoss="3.45" maxSpeed="1.49"/>
        <ride waitingTime="927.00" vehicle="taxi81" depart="29921.00" arrival="31187.00" arrivalPos="6.18" duration="1266.00" routeLength="24305.75" timeLoss="75.49"/>
        <walk depart="31187.00" departPos="6.18" arrival="31213.00" arrivalPos="19.95" duration="26.00" routeLength="46.80" timeLoss="-5.32" maxSpeed="1.49"/>
    </personinfo>
    <personinfo id="tn48" depart="30772.95" type="DEFAULT_PEDTYPE">
        <walk depart="30773.00" departPos="13.51" arrival="30820.00" arrivalPos="10.67" duration="47.00" routeLength="68.59" timeLoss="6.36" maxSpeed="1.69"/>
        <ride waitingTime="270.00" vehicle="taxi89" depart="31090.00" arrival="31492.00" arrivalPos="20.00" duration="402.00" routeLength="6731.02" timeLoss="44.61"/>
        <walk depart="31492.00" departPos="20.00" arrival="31504.00" arrivalPos="1.20" duration="12.00" routeLength="18.80" timeLoss="0.86" maxSpeed="1.69"/>
    </personinfo>
    <personinfo id="tn68" depart="30891.43" type="DEFAULT_PEDTYPE">
        <walk depart="30892.00" departPos="0.02" arrival="30898.00" arrivalPos="6.12" duration="6.00" routeLength="8.81" timeLoss="-0.50" maxSpeed="1.36"/>
        <ride waitingTime="442.00" vehicle="taxi90" depart="31340.00" arrival="31501.00" arrivalPos="109.72" duration="161.00" routeLength="2590.30" timeLoss="37.80"/>
        <walk depart="31501.00" departPos="109.72" arrival="31550.00" arrivalPos="0.15" duration="49.00" routeLength="56.08" timeLoss="7.62" maxSpeed="1.36"/>
    </personinfo>
    <personinfo id="d57" depart="30960.73" type="DEFAULT_PEDTYPE">
        <walk depart="30961.00" departPos="25.74" arrival="30972.00" arrivalPos="15.00" duration="11.00" routeLength="10.74" timeLoss="2.04" maxSpeed="1.20"/>
        <ride waitingTime="58.00" vehicle="taxi54" depart="31030.00" arrival="31623.00" arrivalPos="15.00" duration="593.00" routeLength="10571.48" timeLoss="66.04"/>
        <walk depart="31623.00" departPos="15.00" arrival="31629.00" arrivalPos="21.47" duration="6.00" routeLength="6.47" timeLoss="0.60" maxSpeed="1.20"/>
    </personinfo>
    <personinfo id="th109" depart="30649.67" type="DEFAULT_PEDTYPE">
        <walk depart="30650.00" departPos="1.84" arrival="30918.00" arrivalPos="5.29" duration="268.00" routeLength="344.83" timeLoss="-2.89" maxSpeed="1.27"/>
        <ride waitingTime="411.00" vehicle="taxi80" depart="31329.00" arrival="31578.00" arrivalPos="15.00" duration="249.00" routeLength="3811.60" timeLoss="41.78"/>
        <walk depart="31578.00" departPos="15.00" arrival="31631.00" arrivalPos="14.92" duration="53.00" routeLength="63.55" timeLoss="3.07" maxSpeed="1.27"/>
    </personinfo>
    <personinfo id="tp109" depart="30649.67" type="DEFAULT_PEDTYPE">
        <walk depart="30650.00" departPos="5.87" arrival="30906.00" arrivalPos="5.29" duration="256.00" routeLength="340.80" timeLoss="-4.90" maxSpeed="1.31"/>
        <ride waitingTime="446.00" vehicle="taxi90" depart="31352.00" arrival="31671.00" arrivalPos="15.00" duration="319.00" routeLength="3810.80" timeLoss="50.31"/>
        <walk depart="31671.00" departPos="15.00" arrival="31722.00" arrivalPos="14.92" duration="51.00" routeLength="63.55" timeLoss="2.35" maxSpeed="1.31"/>
    </personinfo>
    <personinfo id="th26" depart="29784.39" type="DEFAULT_PEDTYPE">
        <walk depart="29785.00" departPos="121.00" arrival="30174.00" arrivalPos="2.55" duration="389.00" routeLength="405.24" timeLoss="29.35" maxSpeed="1.13"/>
        <ride waitingTime="578.00" vehicle="taxi89" depart="30752.00" arrival="31031.00" arrivalPos="18.17" duration="279.00" routeLength="4471.15" timeLoss="39.51"/>
        <walk depart="31031.00" departPos="18.17" arrival="31907.00" arrivalPos="36.60" duration="876.00" routeLength="938.96" timeLoss="42.68" maxSpeed="1.13"/>
    </personinfo>
    <personinfo id="th89" depart="31346.34" type="DEFAULT_PEDTYPE">
        <walk depart="31347.00" departPos="19.82" arrival="31482.00" arrivalPos="9.76" duration="135.00" routeLength="159.02" timeLoss="4.81" maxSpeed="1.22"/>
        <ride waitingTime="121.00" vehicle="taxi83" depart="31603.00" arrival="32144.00" arrivalPos="34.99" duration="541.00" routeLength="9566.43" timeLoss="61.78"/>
        <walk depart="32144.00" departPos="34.99" arrival="32187.00" arrivalPos="12.82" duration="43.00" routeLength="51.03" timeLoss="1.22" maxSpeed="1.22"/>
    </personinfo>
    <personinfo id="tp89" depart="31346.34" type="DEFAULT_PEDTYPE">
        <walk depart="31347.00" departPos="20.65" arrival="31453.00" arrivalPos="9.76" duration="106.00" routeLength="158.19" timeLoss="3.86" maxSpeed="1.55"/>
        <ride waitingTime="120.00" vehicle="taxi83" depart="31573.00" arrival="32144.00" arrivalPos="34.99" duration="571.00" routeLength="9725.62" timeLoss="76.55"/>
        <walk depart="32144.00" departPos="34.99" arrival="32188.00" arrivalPos="12.82" duration="44.00" routeLength="51.03" timeLoss="11.05" maxSpeed="1.55"/>
    </personinfo>
    <personinfo id="th156" depart="31417.42" type="DEFAULT_PEDTYPE">
        <walk depart="31418.00" departPos="28.88" arrival="31450.00" arrivalPos="7.50" duration="32.00" routeLength="47.27" timeLoss="-5.48" maxSpeed="1.26"/>
        <ride waitingTime="293.00" vehicle="taxi92" depart="31743.00" arrival="32207.00" arrivalPos="25.00" duration="464.00" routeLength="6227.88" timeLoss="78.36"/>
        <walk depart="32207.00" departPos="25.00" arrival="32218.00" arrivalPos="13.22" duration="11.00" routeLength="11.78" timeLoss="1.66" maxSpeed="1.26"/>
    </personinfo>
    <personinfo id="tp156" depart="31417.42" type="DEFAULT_PEDTYPE">
        <walk depart="31418.00" departPos="25.00" arrival="31447.00" arrivalPos="7.50" duration="29.00" routeLength="43.39" timeLoss="-4.76" maxSpeed="1.29"/>
        <ride waitingTime="140.00" vehicle="taxi92" depart="31587.00" arrival="32207.00" arrivalPos="25.00" duration="620.00" routeLength="7646.58" timeLoss="98.53"/>
        <walk depart="32207.00" departPos="25.00" arrival="32220.00" arrivalPos="13.22" duration="13.00" routeLength="11.78" timeLoss="3.84" maxSpeed="1.29"/>
    </personinfo>
    <personinfo id="th153" depart="30962.87" type="DEFAULT_PEDTYPE">
        <walk depart="30963.00" departPos="2.12" arrival="31486.00" arrivalPos="184.55" duration="523.00" routeLength="643.87" timeLoss="35.25" maxSpeed="1.32"/>
        <ride waitingTime="468.00" vehicle="taxi92" depart="31954.00" arrival="32207.00" arrivalPos="25.00" duration="253.00" routeLength="3217.66" timeLoss="50.28"/>
        <walk depart="32207.00" departPos="25.00" arrival="32228.00" arrivalPos="0.17" duration="21.00" routeLength="24.83" timeLoss="2.19" maxSpeed="1.32"/>
    </personinfo>
    <personinfo id="tp153" depart="30962.87" type="DEFAULT_PEDTYPE">
        <walk depart="30963.00" departPos="40.06" arrival="31570.00" arrivalPos="184.55" duration="607.00" routeLength="681.80" timeLoss="41.28" maxSpeed="1.21"/>
        <ride waitingTime="438.00" vehicle="taxi92" depart="32008.00" arrival="32208.00" arrivalPos="25.00" duration="200.00" routeLength="2643.35" timeLoss="28.51"/>
        <walk depart="32208.00" departPos="25.00" arrival="32231.00" arrivalPos="0.17" duration="23.00" routeLength="24.83" timeLoss="2.40" maxSpeed="1.21"/>
    </personinfo>
    <personinfo id="d141" depart="31854.41" type="DEFAULT_PEDTYPE">
        <walk depart="31855.00" departPos="2.24" arrival="31862.00" arrivalPos="10.00" duration="7.00" routeLength="7.76" timeLoss="0.75" maxSpeed="1.24"/>
        <ride waitingTime="483.00" vehicle="taxi54" depart="32345.00" arrival="32497.00" arrivalPos="33.59" duration="152.00" routeLength="1872.25" timeLoss="25.83"/>
        <walk depart="32497.00" departPos="33.59" arrival="32563.00" arrivalPos="36.77" duration="66.00" routeLength="76.07" timeLoss="4.69" maxSpeed="1.24"/>
    </personinfo>
    <personinfo id="th146" depart="32072.04" type="DEFAULT_PEDTYPE">
        <walk depart="32073.00" departPos="65.02" arrival="32114.00" arrivalPos="7.50" duration="41.00" routeLength="57.52" timeLoss="4.68" maxSpeed="1.58"/>
        <ride waitingTime="186.00" vehicle="taxi74" depart="32300.00" arrival="32590.00" arrivalPos="25.00" duration="290.00" routeLength="2780.83" timeLoss="41.81"/>
        <walk depart="32590.00" departPos="25.00" arrival="32599.00" arrivalPos="12.94" duration="9.00" routeLength="12.06" timeLoss="1.38" maxSpeed="1.58"/>
    </personinfo>
    <personinfo id="tp146" depart="32072.04" type="DEFAULT_PEDTYPE">
        <walk depart="32073.00" departPos="234.19" arrival="32251.00" arrivalPos="7.50" duration="178.00" routeLength="226.69" timeLoss="18.39" maxSpeed="1.42"/>
        <ride waitingTime="126.00" vehicle="taxi74" depart="32377.00" arrival="32590.00" arrivalPos="25.00" duration="213.00" routeLength="2295.31" timeLoss="27.28"/>
        <walk depart="32590.00" departPos="25.00" arrival="32600.00" arrivalPos="12.94" duration="10.00" routeLength="12.06" timeLoss="1.51" maxSpeed="1.42"/>
    </personinfo>
    <personinfo id="d135" depart="32308.99" type="DEFAULT_PEDTYPE">
        <walk depart="32309.00" departPos="2.99" arrival="32319.00" arrivalPos="15.00" duration="10.00" routeLength="12.01" timeLoss="1.23" maxSpeed="1.37"/>
        <ride waitingTime="32.00" vehicle="taxi45" depart="32351.00" arrival="32470.00" arrivalPos="95.33" duration="119.00" routeLength="1232.10" timeLoss="24.82"/>
        <walk depart="32470.00" departPos="95.33" arrival="32631.00" arrivalPos="46.41" duration="161.00" routeLength="252.67" timeLoss="-23.50" maxSpeed="1.37"/>
    </personinfo>
    <personinfo id="d112" depart="32394.65" type="DEFAULT_PEDTYPE">
        <walk depart="32395.00" departPos="2.98" arrival="32401.00" arrivalPos="10.00" duration="6.00" routeLength="7.02" timeLoss="0.73" maxSpeed="1.33"/>
        <ride waitingTime="37.00" vehicle="taxi27" depart="32438.00" arrival="32617.00" arrivalPos="44.82" duration="179.00" routeLength="2072.04" timeLoss="33.92"/>
        <walk depart="32617.00" departPos="44.82" arrival="32741.00" arrivalPos="2.94" duration="124.00" routeLength="153.54" timeLoss="8.73" maxSpeed="1.33"/>
    </personinfo>
    <personinfo id="tp136" depart="32421.41" type="DEFAULT_PEDTYPE">
        <walk depart="32422.00" departPos="3.46" arrival="32580.00" arrivalPos="37.39" duration="158.00" routeLength="262.78" timeLoss="10.49" maxSpeed="1.78"/>
        <ride waitingTime="107.00" vehicle="taxi27" depart="32687.00" arrival="32864.00" arrivalPos="25.00" duration="177.00" routeLength="2129.19" timeLoss="27.29"/>
        <walk depart="32864.00" departPos="25.00" arrival="32874.00" arrivalPos="9.21" duration="10.00" routeLength="15.79" timeLoss="1.14" maxSpeed="1.78"/>
    </personinfo>
    <personinfo id="d35" depart="31079.74" type="DEFAULT_PEDTYPE">
        <walk depart="31080.00" departPos="20.18" arrival="31084.00" arrivalPos="15.00" duration="4.00" routeLength="5.18" timeLoss="0.43" maxSpeed="1.45"/>
        <ride waitingTime="527.00" vehicle="taxi89" depart="31611.00" arrival="32780.00" arrivalPos="15.00" duration="1169.00" routeLength="19850.88" timeLoss="129.87"/>
        <walk depart="32780.00" departPos="15.00" arrival="32911.00" arrivalPos="1.00" duration="131.00" routeLength="212.89" timeLoss="-15.65" maxSpeed="1.45"/>
    </personinfo>
    <personinfo id="d93" depart="32235.74" type="DEFAULT_PEDTYPE">
        <walk depart="32236.00" departPos="12.93" arrival="32238.00" arrivalPos="15.00" duration="2.00" routeLength="2.07" timeLoss="0.11" maxSpeed="1.09"/>
        <ride waitingTime="48.00" vehicle="taxi36" depart="32286.00" arrival="32843.00" arrivalPos="33.91" duration="557.00" routeLength="8208.25" timeLoss="57.03"/>
        <walk depart="32843.00" departPos="33.91" arrival="32925.00" arrivalPos="3.03" duration="82.00" routeLength="20.29" timeLoss="63.46" maxSpeed="1.09"/>
    </personinfo>
    <personinfo id="d152" depart="32561.15" type="DEFAULT_PEDTYPE">
        <walk depart="32562.00" departPos="15.82" arrival="32563.00" arrivalPos="15.00" duration="1.00" routeLength="0.82" timeLoss="0.44" maxSpeed="1.47"/>
        <ride waitingTime="62.00" vehicle="taxi63" depart="32625.00" arrival="32881.00" arrivalPos="25.48" duration="256.00" routeLength="3432.52" timeLoss="36.27"/>
        <walk depart="32881.00" departPos="25.48" arrival="32963.00" arrivalPos="127.56" duration="82.00" routeLength="107.05" timeLoss="9.22" maxSpeed="1.47"/>
    </personinfo>
    <personinfo id="th63" depart="30915.84" type="DEFAULT_PEDTYPE">
        <walk depart="30916.00" departPos="27.95" arrival="31373.00" arrivalPos="87.83" duration="457.00" routeLength="534.72" timeLoss="77.08" maxSpeed="1.41"/>
        <ride waitingTime="689.00" vehicle="taxi80" depart="32062.00" arrival="32900.00" arrivalPos="15.00" duration="838.00" routeLength="16291.53" timeLoss="70.11"/>
        <walk depart="32900.00" departPos="15.00" arrival="32995.00" arrivalPos="7.10" duration="95.00" routeLength="119.44" timeLoss="10.14" maxSpeed="1.41"/>
    </personinfo>
    <personinfo id="tp63" depart="30915.84" type="DEFAULT_PEDTYPE">
        <walk depart="30916.00" departPos="34.67" arrival="31324.00" arrivalPos="87.83" duration="408.00" routeLength="541.45" timeLoss="30.32" maxSpeed="1.43"/>
        <ride waitingTime="738.00" vehicle="taxi80" depart="32062.00" arrival="32900.00" arrivalPos="15.00" duration="838.00" routeLength="16291.53" timeLoss="70.11"/>
        <walk depart="32900.00" departPos="15.00" arrival="32997.00" arrivalPos="7.10" duration="97.00" routeLength="119.44" timeLoss="13.69" maxSpeed="1.43"/>
    </personinfo>
    <personinfo id="d153" depart="32072.04" type="DEFAULT_PEDTYPE">
        <walk depart="32073.00" departPos="4.85" arrival="32081.00" arrivalPos="15.00" duration="8.00" routeLength="10.15" timeLoss="0.69" maxSpeed="1.39"/>
        <ride waitingTime="213.00" vehicle="taxi54" depart="32294.00" arrival="32664.00" arrivalPos="73.53" duration="370.00" routeLength="3477.67" timeLoss="77.40"/>
        <walk depart="32664.00" departPos="73.53" arrival="33020.00" arrivalPos="62.03" duration="356.00" routeLength="460.44" timeLoss="24.41" maxSpeed="1.39"/>
    </personinfo>
    <personinfo id="d91" depart="32165.36" type="DEFAULT_PEDTYPE">
        <walk depart="32166.00" departPos="2.11" arrival="32180.00" arrivalPos="15.00" duration="14.00" routeLength="12.89" timeLoss="1.78" maxSpeed="1.05"/>
        <ride waitingTime="140.00" vehicle="taxi54" depart="32320.00" arrival="32926.00" arrivalPos="23.03" duration="606.00" routeLength="6604.17" timeLoss="90.43"/>
        <walk depart="32926.00" departPos="23.03" arrival="33068.00" arrivalPos="33.80" duration="142.00" routeLength="138.69" timeLoss="10.51" maxSpeed="1.05"/>
    </personinfo>
    <personinfo id="d100" depart="32367.26" type="DEFAULT_PEDTYPE">
        <walk depart="32368.00" departPos="3.61" arrival="32377.00" arrivalPos="15.00" duration="9.00" routeLength="11.39" timeLoss="1.00" maxSpeed="1.42"/>
        <ride waitingTime="246.00" vehicle="taxi45" depart="32623.00" arrival="33011.00" arrivalPos="13.24" duration="388.00" routeLength="6671.07" timeLoss="44.02"/>