<?xml version="1.0" encoding="UTF-8"?>

<!-- generated by Eclipse SUMO sumo Version 1.12.0
<configuration xmlns:xsi="http://www.w3.org/2001/XMLSchema-instance" xsi:noNamespaceSchemaLocation="http://sumo.dlr.de/xsd/sumoConfiguration.xsd">

    <input>
        <net-file value="D:\Dokumente\sumo\maloja\simple.net.xml"/>
        <route-files value="D:\Dokumente\sumo\maloja\09_daytrips\persontrips_maloja_daytrips_resolved_offseason_taxi_w10.rou.xml,D:\Dokumente\sumo\maloja\11_hotel\persontrips_maloja_hotel_resolved_offseason_taxi_w10.rou.xml,D:\Dokumente\sumo\maloja\12_non_hotel\persontrips_maloja_non_hotel_resolved_offseason_taxi_w10.rou.xml,D:\Dokumente\sumo\maloja\13_private\persontrips_maloja_private_resolved_offseason_taxi_w10.rou.xml"/>
        <additional-files value="D:\Dokumente\sumo\maloja\03_bus\virtualstop.add.xml,D:\Dokumente\sumo\maloja\03_bus\03_November\gtfs_pt_stops.add.xml,drt_fleet.xml"/>
    </input>

    <output>
        <tripinfo-output value="tripinfos_drt.xml"/>
        <tripinfo-output.write-unfinished value="true"/>
        <stop-output value="stopinfos_drt.xml"/>
        <statistic-output value="stats_drt.xml"/>
    </output>

    <time>
        <begin value="20520"/>
        <end value="77400"/>
    </time>

    <routing>
        <routing-algorithm value="CH"/>
        <persontrip.transfer.taxi-walk value="ptStops"/>
        <persontrip.transfer.walk-taxi value="ptStops"/>
    </routing>

    <report>
        <verbose value="true"/>
        <log value="simulation.log.txt"/>
        <error-log value="sumo_error.log"/>
        <duration-log.statistics value="true"/>
    </report>

    <taxi_device>
        <device.taxi.dispatch-algorithm value="traci"/>
    </taxi_device>

    <traci_server>
        <remote-port value="65476"/>
    </traci_server>

</configuration>
-->

<tripinfos xmlns:xsi="http://www.w3.org/2001/XMLSchema-instance" xsi:noNamespaceSchemaLocation="http://sumo.dlr.de/xsd/tripinfo_file.xsd">
    <personinfo id="d92" depart="29122.82" type="DEFAULT_PEDTYPE">
        <walk depart="29123.00" departPos="5.40" arrival="29131.00" arrivalPos="15.00" duration="8.00" routeLength="9.60" timeLoss="1.31" maxSpeed="1.43"/>
        <ride waitingTime="38.00" vehicle="taxi54" depart="29169.00" arrival="29570.00" arrivalPos="6.62" duration="401.00" routeLength="6656.83" timeLoss="44.03"/>
        <walk depart="29570.00" departPos="6.62" arrival="29603.00" arrivalPos="0.67" duration="33.00" routeLength="41.00" timeLoss="4.41" maxSpeed="1.43"/>
    </personinfo>
    <personinfo id="d89" depart="29197.95" type="DEFAULT_PEDTYPE">
        <walk depart="29198.00" departPos="20.04" arrival="29202.00" arrivalPos="15.00" duration="4.00" routeLength="5.04" timeLoss="0.46" maxSpeed="1.42"/>
        <ride waitingTime="55.00" vehicle="taxi45" depart="29257.00" arrival="29656.00" arrivalPos="516.88" duration="399.00" routeLength="7107.84" timeLoss="49.65"/>
        <walk depart="29656.00" departPos="516.88" arrival="29689.00" arrivalPos="23.98" duration="33.00" routeLength="45.61" timeLoss="0.94" maxSpeed="1.42"/>
    </personinfo>
    <personinfo id="th83" depart="29197.95" type="DEFAULT_PEDTYPE">
        <walk depart="29198.00" departPos="4.44" arrival="29370.00" arrivalPos="23.94" duration="172.00" routeLength="260.01" timeLoss="-0.23" maxSpeed="1.51"/>
        <ride waitingTime="78.00" vehicle="taxi38" depart="29448.00" arrival="29893.00" arrivalPos="7.50" duration="445.00" routeLength="8597.14" timeLoss="50.30"/>
        <walk depart="29893.00" departPos="7.50" arrival="29900.00" arrivalPos="1.99" duration="7.00" routeLength="12.70" timeLoss="-1.41" maxSpeed="1.51"/>
    </personinfo>
    <personinfo id="tp83" depart="29197.95" type="DEFAULT_PEDTYPE">
        <walk depart="29198.00" departPos="77.44" arrival="29332.00" arrivalPos="23.94" duration="134.00" routeLength="187.01" timeLoss="-3.96" maxSpeed="1.36"/>
        <ride waitingTime="73.00" vehicle="taxi38" depart="29405.00" arrival="29893.00" arrivalPos="7.50" duration="488.00" routeLength="8968.72" timeLoss="65.08"/>
        <walk depart="29893.00" departPos="7.50" arrival="29902.00" arrivalPos="1.99" duration="9.00" routeLength="12.70" timeLoss="-0.37" maxSpeed="1.36"/>
    </personinfo>
    <personinfo id="d56" depart="28921.78" type="DEFAULT_PEDTYPE">
        <walk depart="28922.00" departPos="22.95" arrival="28929.00" arrivalPos="15.00" duration="7.00" routeLength="7.95" timeLoss="0.53" maxSpeed="1.23"/>
        <ride waitingTime="32.00" vehicle="taxi63" depart="28961.00" arrival="29554.00" arrivalPos="7.50" duration="593.00" routeLength="10563.18" timeLoss="64.66"/>
        <walk depart="29554.00" departPos="7.50" arrival="29938.00" arrivalPos="62.06" duration="384.00" routeLength="457.72" timeLoss="11.35" maxSpeed="1.23"/>
    </personinfo>
    <personinfo id="d128" depart="28979.52" type="DEFAULT_PEDTYPE">
        <walk depart="28980.00" departPos="6.87" arrival="28983.00" arrivalPos="10.00" duration="3.00" routeLength="3.13" timeLoss="0.98" maxSpeed="1.55"/>
        <ride waitingTime="415.00" vehicle="taxi1" depart="29398.00" arrival="29585.00" arrivalPos="38.05" duration="187.00" routeLength="2618.88" timeLoss="24.14"/>
        <walk depart="29585.00" departPos="38.05" arrival="29962.00" arrivalPos="105.14" duration="377.00" routeLength="545.83" timeLoss="25.39" maxSpeed="1.55"/>
    </personinfo>
    <personinfo id="th122" depart="28979.52" type="DEFAULT_PEDTYPE">
        <walk depart="28980.00" departPos="20.32" arrival="28982.00" arrivalPos="18.71" duration="2.00" routeLength="1.61" timeLoss="0.74" maxSpeed="1.28"/>
        <ride waitingTime="32.00" vehicle="taxi1" depart="29014.00" arrival="29585.00" arrivalPos="38.05" duration="571.00" routeLength="5687.66" timeLoss="73.56"/>
        <walk depart="29585.00" departPos="38.05" arrival="30043.00" arrivalPos="105.14" duration="458.00" routeLength="545.83" timeLoss="30.04" maxSpeed="1.28"/>
    </personinfo>
    <personinfo id="tp122" depart="28979.52" type="DEFAULT_PEDTYPE">
        <walk depart="28980.00" departPos="21.68" arrival="28983.00" arrivalPos="18.71" duration="3.00" routeLength="2.97" timeLoss="1.03" maxSpeed="1.50"/>
        <ride waitingTime="31.00" vehicle="taxi1" depart="29014.00" arrival="29585.00" arrivalPos="38.05" duration="571.00" routeLength="5687.66" timeLoss="73.56"/>
        <walk depart="29585.00" departPos="38.05" arrival="30044.00" arrivalPos="105.14" duration="459.00" routeLength="545.83" timeLoss="95.76" maxSpeed="1.50"/>
    </personinfo>
    <personinfo id="tn85" depart="28889.60" type="DEFAULT_PEDTYPE">
        <walk depart="28890.00" departPos="11.01" arrival="29355.00" arrivalPos="553.86" duration="465.00" routeLength="535.83" timeLoss="49.24" maxSpeed="1.29"/>
        <ride waitingTime="470.00" vehicle="taxi54" depart="29825.00" arrival="30058.00" arrivalPos="15.00" duration="233.00" routeLength="3001.61" timeLoss="40.77"/>
        <walk depart="30058.00" departPos="15.00" arrival="30068.00" arrivalPos="25.50" duration="10.00" routeLength="10.50" timeLoss="1.85" maxSpeed="1.29"/>
    </personinfo>
    <personinfo id="tn81" depart="29197.95" type="DEFAULT_PEDTYPE">
        <walk depart="29198.00" departPos="0.94" arrival="29387.00" arrivalPos="23.94" duration="189.00" routeLength="263.50" timeLoss="2.43" maxSpeed="1.41"/>
        <ride waitingTime="538.00" vehicle="taxi54" depart="29925.00" arrival="30058.00" arrivalPos="15.00" duration="133.00" routeLength="1691.33" timeLoss="19.45"/>
        <walk depart="30058.00" departPos="15.00" arrival="30162.00" arrivalPos="0.24" duration="104.00" routeLength="133.26" timeLoss="9.65" maxSpeed="1.41"/>
    </personinfo>
    <personinfo id="th129" depart="29903.27" type="DEFAULT_PEDTYPE">
        <walk depart="29904.00" departPos="25.47" arrival="30264.00" arrivalPos="184.55" duration="360.00" routeLength="461.91" timeLoss="78.22" maxSpeed="1.64"/>
        <ride waitingTime="58.00" vehicle="taxi1" depart="30322.00" arrival="30509.00" arrivalPos="15.00" duration="187.00" routeLength="2628.38" timeLoss="27.13"/>
        <walk depart="30509.00" departPos="15.00" arrival="30519.00" arrivalPos="1.24" duration="10.00" routeLength="13.76" timeLoss="1.61" maxSpeed="1.64"/>
    </personinfo>
    <personinfo id="tp129" depart="29903.27" type="DEFAULT_PEDTYPE">
        <walk depart="29904.00" departPos="15.46" arrival="30263.00" arrivalPos="184.55" duration="359.00" routeLength="451.90" timeLoss="37.56" maxSpeed="1.41"/>
        <ride waitingTime="59.00" vehicle="taxi1" depart="30322.00" arrival="30509.00" arrivalPos="15.00" duration="187.00" routeLength="2628.38" timeLoss="27.13"/>
        <walk depart="30509.00" departPos="15.00" arrival="30520.00" arrivalPos="1.24" duration="11.00" routeLength="13.76" timeLoss="1.21" maxSpeed="1.41"/>
    </personinfo>
    <personinfo id="d136" depart="29903.27" type="DEFAULT_PEDTYPE">
        <walk depart="29904.00" departPos="3.86" arrival="29914.00" arrivalPos="15.00" duration="10.00" routeLength="11.14" timeLoss="1.60" maxSpeed="1.33"/>
        <ride waitingTime="236.00" vehicle="taxi54" depart="30150.00" arrival="30396.00" arrivalPos="20.48" duration="246.00" routeLength="3425.92" timeLoss="28.95"/>
        <walk depart="30396.00" departPos="20.48" arrival="30635.00" arrivalPos="1.56" duration="239.00" routeLength="302.54" timeLoss="10.96" maxSpeed="1.33"/>
    </personinfo>
    <personinfo id="th138" depart="30205.95" type="DEFAULT_PEDTYPE">
        <walk depart="30206.00" departPos="1.79" arrival="30212.00" arrivalPos="5.29" duration="6.00" routeLength="27.00" timeLoss="-13.59" maxSpeed="1.38"/>
        <ride waitingTime="437.00" vehicle="taxi17" depart="30649.00" arrival="30918.00" arrivalPos="10.00" duration="269.00" routeLength="4203.88" timeLoss="32.25"/>
        <walk depart="30918.00" departPos="10.00" arrival="30927.00" arrivalPos="20.38" duration="9.00" routeLength="10.38" timeLoss="1.47" maxSpeed="1.38"/>
    </personinfo>
    <personinfo id="tp138" depart="30205.95" type="DEFAULT_PEDTYPE">
        <walk depart="30206.00" departPos="0.69" arrival="30211.00" arrivalPos="5.29" duration="5.00" routeLength="25.90" timeLoss="-12.43" maxSpeed="1.49"/>
        <ride waitingTime="422.00" vehicle="taxi17" depart="30633.00" arrival="30918.00" arrivalPos="10.00" duration="285.00" routeLength="4237.79" timeLoss="42.15"/>
        <walk depart="30918.00" departPos="10.00" arrival="30927.00" arrivalPos="20.38" duration="9.00" routeLength="10.38" timeLoss="2.01" maxSpeed="1.49"/>
    </personinfo>
    <personinfo id="d145" depart="30205.95" type="DEFAULT_PEDTYPE">
        <walk depart="30206.00" departPos="12.57" arrival="30208.00" arrivalPos="15.00" duration="2.00" routeLength="2.43" timeLoss="0.28" maxSpeed="1.41"/>
        <ride waitingTime="535.00" vehicle="taxi54" depart="30743.00" arrival="30878.00" arrivalPos="46.08" duration="135.00" routeLength="1633.69" timeLoss="21.61"/>
        <walk depart="30878.00" departPos="46.08" arrival="30960.00" arrivalPos="18.64" duration="82.00" routeLength="51.09" timeLoss="45.82" maxSpeed="1.41"/>
    </personinfo>
    <personinfo id="tp26" depart="29784.39" type="DEFAULT_PEDTYPE">
        <walk depart="29785.00" departPos="0.07" arrival="29986.00" arrivalPos="2.55" duration="201.00" routeLength="284.31" timeLoss="14.87" maxSpeed="1.53"/>
        <ride waitingTime="52.00" vehicle="taxi62" depart="30038.00" arrival="30311.00" arrivalPos="10.67" duration="273.00" routeLength="4463.69" timeLoss="33.51"/>
        <walk depart="30311.00" departPos="10.67" arrival="30962.00" arrivalPos="36.60" duration="651.00" routeLength="946.46" timeLoss="31.39" maxSpeed="1.53"/>
    </personinfo>
    <personinfo id="th26" depart="29784.39" type="DEFAULT_PEDTYPE">
        <walk depart="29785.00" departPos="146.92" arrival="30053.00" arrivalPos="2.55" duration="268.00" routeLength="431.16" timeLoss="21.46" maxSpeed="1.75"/>
        <ride waitingTime="44.00" vehicle="taxi17" depart="30097.00" arrival="30384.00" arrivalPos="10.67" duration="287.00" routeLength="4463.66" timeLoss="38.10"/>
        <walk depart="30384.00" departPos="10.67" arrival="30962.00" arrivalPos="36.60" duration="578.00" routeLength="946.46" timeLoss="36.80" maxSpeed="1.75"/>
    </personinfo>
    <personinfo id="d66" depart="30056.12" type="DEFAULT_PEDTYPE">
        <walk depart="30057.00" departPos="2.54" arrival="30069.00" arrivalPos="15.00" duration="12.00" routeLength="12.46" timeLoss="1.65" maxSpeed="1.20"/>
        <ride waitingTime="479.00" vehicle="taxi38" depart="30548.00" arrival="31144.00" arrivalPos="27.49" duration="596.00" routeLength="11140.05" timeLoss="68.34"/>
        <walk depart="31144.00" departPos="27.49" arrival="31183.00" arrivalPos="14.16" duration="39.00" routeLength="44.87" timeLoss="1.71" maxSpeed="1.20"/>
    </personinfo>
    <personinfo id="d115" depart="30649.67" type="DEFAULT_PEDTYPE">
        <walk depart="30650.00" departPos="5.99" arrival="30658.00" arrivalPos="15.00" duration="8.00" routeLength="9.01" timeLoss="1.34" maxSpeed="1.35"/>
        <ride waitingTime="339.00" vehicle="taxi17" depart="30997.00" arrival="31152.00" arrivalPos="9.76" duration="155.00" routeLength="1695.26" timeLoss="36.15"/>
        <walk depart="31152.00" departPos="9.76" arrival="31198.00" arrivalPos="27.61" duration="46.00" routeLength="70.61" timeLoss="-6.15" maxSpeed="1.35"/>
    </personinfo>
    <personinfo id="tn64" depart="29217.29" type="DEFAULT_PEDTYPE">
        <walk depart="29218.00" departPos="3.52" arrival="29815.00" arrivalPos="18.71" duration="597.00" routeLength="708.28" timeLoss="20.06" maxSpeed="1.23"/>
        <ride waitingTime="39.00" vehicle="taxi10" depart="29854.00" arrival="30679.00" arrivalPos="4.98" duration="825.00" routeLength="12743.88" timeLoss="92.28"/>
        <walk depart="30679.00" departPos="4.98" arrival="31288.00" arrivalPos="108.49" duration="609.00" routeLength="703.51" timeLoss="35.94" maxSpeed="1.23"/>
    </personinfo>
    <personinfo id="th32" depart="28958.69" type="DEFAULT_PEDTYPE">
        <walk depart="28959.00" departPos="8.16" arrival="28965.00" arrivalPos="15.53" duration="6.00" routeLength="7.37" timeLoss="0.81" maxSpeed="1.42"/>
        <ride waitingTime="999.00" vehicle="taxi63" depart="29964.00" arrival="31311.00" arrivalPos="5.00" duration="1347.00" routeLength="24789.17" timeLoss="87.53"/>
        <walk depart="31311.00" departPos="5.00" arrival="31329.00" arrivalPos="24.95" duration="18.00" routeLength="40.62" timeLoss="-10.59" maxSpeed="1.42"/>
    </personinfo>
    <personinfo id="tp32" depart="28958.69" type="DEFAULT_PEDTYPE">
        <walk depart="28959.00" departPos="12.31" arrival="28962.00" arrivalPos="15.53" duration="3.00" routeLength="3.22" timeLoss="0.80" maxSpeed="1.47"/>
        <ride waitingTime="929.00" vehicle="taxi63" depart="29891.00" arrival="31311.00" arrivalPos="5.00" duration="1420.00" routeLength="25268.82" timeLoss="101.70"/>
        <walk depart="31311.00" departPos="5.00" arrival="31333.00" arrivalPos="24.95" duration="22.00" routeLength="40.62" timeLoss="-5.71" maxSpeed="1.47"/>
    </personinfo>
    <personinfo id="tn32" depart="28958.69" type="DEFAULT_PEDTYPE">
        <walk depart="28959.00" departPos="41.98" arrival="28983.00" arrivalPos="15.53" duration="24.00" routeLength="26.45" timeLoss="2.78" maxSpeed="1.25"/>
        <ride waitingTime="1056.00" vehicle="taxi63" depart="30039.00" arrival="31311.00" arrivalPos="5.00" duration="1272.00" routeLength="24309.52" timeLoss="71.46"/>
        <walk depart="31311.00" departPos="5.00" arrival="31337.00" arrivalPos="19.95" duration="26.00" routeLength="45.62" timeLoss="-10.60" maxSpeed="1.25"/>
    </personinfo>
    <personinfo id="th109" depart="30649.67" type="DEFAULT_PEDTYPE">
        <walk depart="30650.00" departPos="10.05" arrival="30910.00" arrivalPos="5.29" duration="260.00" routeLength="336.62" timeLoss="-1.53" maxSpeed="1.29"/>
        <ride waitingTime="153.00" vehicle="taxi47" depart="31063.00" arrival="31322.00" arrivalPos="7.50" duration="259.00" routeLength="3800.23" timeLoss="39.06"/>
        <walk depart="31322.00" departPos="7.50" arrival="31368.00" arrivalPos="14.92" duration="46.00" routeLength="56.05" timeLoss="2.45" maxSpeed="1.29"/>
    </personinfo>
    <personinfo id="tp109" depart="30649.67" type="DEFAULT_PEDTYPE">
        <walk depart="30650.00" departPos="3.44" arrival="30911.00" arrivalPos="5.29" duration="261.00" routeLength="343.22" timeLoss="22.76" maxSpeed="1.44"/>
        <ride waitingTime="152.00" vehicle="taxi47" depart="31063.00" arrival="31322.00" arrivalPos="7.50" duration="259.00" routeLength="3800.23" timeLoss="39.06"/>
        <walk depart="31322.00" departPos="7.50" arrival="31369.00" arrivalPos="14.92" duration="47.00" routeLength="56.05" timeLoss="8.09" maxSpeed="1.44"/>
    </personinfo>
    <personinfo id="tn48" depart="30772.95" type="DEFAULT_PEDTYPE">
        <walk depart="30773.00" departPos="17.92" arrival="30848.00" arrivalPos="10.67" duration="75.00" routeLength="72.99" timeLoss="8.85" maxSpeed="1.10"/>
        <ride waitingTime="122.00" vehicle="taxi62" depart="30970.00" arrival="31377.00" arrivalPos="10.00" duration="407.00" routeLength="6728.52" timeLoss="48.44"/>
        <walk depart="31377.00" departPos="10.00" arrival="31386.00" arrivalPos="1.20" duration="9.00" routeLength="8.80" timeLoss="1.03" maxSpeed="1.10"/>
    </personinfo>
    <personinfo id="tn68" depart="30891.43" type="DEFAULT_PEDTYPE">
        <walk depart="30892.00" departPos="0.05" arrival="30900.00" arrivalPos="6.12" duration="8.00" routeLength="8.84" timeLoss="2.68" maxSpeed="1.66"/>
        <ride waitingTime="513.00" vehicle="taxi17" depart="31413.00" arrival="31570.00" arrivalPos="102.22" duration="157.00" routeLength="2583.02" timeLoss="32.18"/>
        <walk depart="31570.00" departPos="102.22" arrival="31615.00" arrivalPos="0.15" duration="45.00" routeLength="63.58" timeLoss="6.72" maxSpeed="1.66"/>
    </personinfo>
    <personinfo id="tn26" depart="29784.39" type="DEFAULT_PEDTYPE">
        <walk depart="29785.00" departPos="147.56" arrival="30112.00" arrivalPos="2.55" duration="327.00" routeLength="431.80" timeLoss="25.83" maxSpeed="1.43"/>
        <ride waitingTime="547.00" vehicle="taxi62" depart="30659.00" arrival="30933.00" arrivalPos="10.67" duration="274.00" routeLength="4463.68" timeLoss="34.62"/>
        <walk depart="30933.00" departPos="10.67" arrival="31626.00" arrivalPos="36.60" duration="693.00" routeLength="946.46" timeLoss="32.86" maxSpeed="1.43"/>
    </personinfo>
    <personinfo id="th156" depart="31417.42" type="DEFAULT_PEDTYPE">
        <walk depart="31418.00" departPos="11.97" arrival="31435.00" arrivalPos="7.50" duration="17.00" routeLength="30.36" timeLoss="-5.69" maxSpeed="1.34"/>
        <ride waitingTime="59.00" vehicle="taxi54" depart="31494.00" arrival="31649.00" arrivalPos="15.00" duration="155.00" routeLength="1482.69" timeLoss="27.34"/>
        <walk depart="31649.00" departPos="15.00" arrival="31651.00" arrivalPos="13.22" duration="2.00" routeLength="1.78" timeLoss="0.67" maxSpeed="1.34"/>
    </personinfo>
    <personinfo id="tp156" depart="31417.42" type="DEFAULT_PEDTYPE">
        <walk depart="31418.00" departPos="16.08" arrival="31438.00" arrivalPos="7.50" duration="20.00" routeLength="34.47" timeLoss="-5.78" maxSpeed="1.34"/>
        <ride waitingTime="56.00" vehicle="taxi54" depart="31494.00" arrival="31649.00" arrivalPos="15.00" duration="155.00" routeLength="1482.69" timeLoss="27.34"/>
        <walk depart="31649.00" departPos="15.00" arrival="31651.00" arrivalPos="13.22" duration="2.00" routeLength="1.78" timeLoss="0.67" maxSpeed="1.34"/>
    </personinfo>
    <personinfo id="tp65" depart="29217.29" type="DEFAULT_PEDTYPE">
        <walk depart="29218.00" departPos="2.90" arrival="29745.00" arrivalPos="18.71" duration="527.00" routeLength="708.90" timeLoss="19.78" maxSpeed="1.40"/>
        <ride waitingTime="50.00" vehicle="taxi64" depart="29795.00" arrival="31032.00" arrivalPos="93.33" duration="1237.00" routeLength="19745.65" timeLoss="94.65"/>
        <walk depart="31032.00" departPos="93.33" arrival="31770.00" arrivalPos="16.12" duration="738.00" routeLength="939.66" timeLoss="65.68" maxSpeed="1.40"/>
    </personinfo>
    <personinfo id="th65" depart="29217.29" type="DEFAULT_PEDTYPE">
        <walk depart="29218.00" departPos="3.42" arrival="29816.00" arrivalPos="18.71" duration="598.00" routeLength="708.38" timeLoss="108.33" maxSpeed="1.45"/>
        <ride waitingTime="69.00" vehicle="taxi10" depart="29885.00" arrival="31229.00" arrivalPos="93.33" duration="1344.00" routeLength="22073.73" timeLoss="122.01"/>
        <walk depart="31229.00" departPos="93.33" arrival="31942.00" arrivalPos="16.12" duration="713.00" routeLength="939.66" timeLoss="63.46" maxSpeed="1.45"/>
    </personinfo>
    <personinfo id="d29" depart="29784.39" type="DEFAULT_PEDTYPE">
        <walk depart="29785.00" departPos="18.34" arrival="29788.00" arrivalPos="15.00" duration="3.00" routeLength="3.34" timeLoss="0.55" maxSpeed="1.36"/>
        <ride waitingTime="731.00" vehicle="taxi38" depart="30519.00" arrival="31973.00" arrivalPos="7.50" duration="1454.00" routeLength="26648.60" timeLoss="132.59"/>
        <walk depart="31973.00" departPos="7.50" arrival="31997.00" arrivalPos="22.78" duration="24.00" routeLength="40.70" timeLoss="-5.82" maxSpeed="1.36"/>
    </personinfo>
    <personinfo id="d57" depart="30960.73" type="DEFAULT_PEDTYPE">
        <walk depart="30961.00" departPos="24.60" arrival="30969.00" arrivalPos="15.00" duration="8.00" routeLength="9.60" timeLoss="1.22" maxSpeed="1.42"/>
        <ride waitingTime="496.00" vehicle="taxi62" depart="31465.00" arrival="32049.00" arrivalPos="7.50" duration="584.00" routeLength="10559.19" timeLoss="64.10"/>
        <walk depart="32049.00" departPos="7.50" arrival="32060.00" arrivalPos="21.47" duration="11.00" routeLength="13.97" timeLoss="1.14" maxSpeed="1.42"/>
    </personinfo>
    <personinfo id="th153" depart="30962.87" type="DEFAULT_PEDTYPE">
        <walk depart="30963.00" departPos="8.77" arrival="31535.00" arrivalPos="184.55" duration="572.00" routeLength="650.52" timeLoss="36.79" maxSpeed="1.22"/>
        <ride waitingTime="387.00" vehicle="taxi54" depart="31922.00" arrival="32106.00" arrivalPos="15.00" duration="184.00" routeLength="2628.39" timeLoss="29.23"/>
        <walk depart="32106.00" departPos="15.00" arrival="32120.00" arrivalPos="0.17" duration="14.00" routeLength="14.83" timeLoss="1.80" maxSpeed="1.22"/>
    </personinfo>
    <personinfo id="tp153" depart="30962.87" type="DEFAULT_PEDTYPE">
        <walk depart="30963.00" departPos="115.44" arrival="31536.00" arrivalPos="184.55" duration="573.00" routeLength="757.19" timeLoss="52.99" maxSpeed="1.46"/>
        <ride waitingTime="386.00" vehicle="taxi54" depart="31922.00" arrival="32106.00" arrivalPos="15.00" duration="184.00" routeLength="2628.39" timeLoss="29.23"/>
        <walk depart="32106.00" departPos="15.00" arrival="32121.00" arrivalPos="0.17" duration="15.00" routeLength="14.83" timeLoss="4.82" maxSpeed="1.46"/>
    </personinfo>
    <personinfo id="th89" depart="31346.34" type="DEFAULT_PEDTYPE">
        <walk depart="31347.00" departPos="47.75" arrival="31454.00" arrivalPos="9.76" duration="107.00" routeLength="131.09" timeLoss="2.73" maxSpeed="1.26"/>
        <ride waitingTime="123.00" vehicle="taxi56" depart="31577.00" arrival="32136.00" arrivalPos="27.49" duration="559.00" routeLength="9558.93" timeLoss="64.25"/>
        <walk depart="32136.00" departPos="27.49" arrival="32172.00" arrivalPos="12.82" duration="36.00" routeLength="43.53" timeLoss="1.38" maxSpeed="1.26"/>
    </personinfo>
    <personinfo id="tp89" depart="31346.34" type="DEFAULT_PEDTYPE">
        <walk depart="31347.00" departPos="65.89" arrival="31423.00" arrivalPos="9.76" duration="76.00" routeLength="112.95" timeLoss="4.10" maxSpeed="1.57"/>
        <ride waitingTime="277.00" vehicle="taxi36" depart="31700.00" arrival="32240.00" arrivalPos="27.49" duration="540.00" routeLength="9558.13" timeLoss="62.66"/>
        <walk depart="32240.00" departPos="27.49" arrival="32269.00" arrivalPos="12.82" duration="29.00" routeLength="43.53" timeLoss="1.29" maxSpeed="1.57"/>
    </personinfo>
    <personinfo id="d141" depart="31854.41" type="DEFAULT_PEDTYPE">
        <walk depart="31855.00" departPos="7.93" arrival="31857.00" arrivalPos="10.00" duration="2.00" routeLength="2.07" timeLoss="0.77" maxSpeed="1.69"/>
        <ride waitingTime="357.00" vehicle="taxi54" depart="32214.00" arrival="32421.00" arrivalPos="26.09" duration="207.00" routeLength="2158.25" timeLoss="54.76"/>
        <walk depart="32421.00" departPos="26.09" arrival="32474.00" arrivalPos="36.77" duration="53.00" routeLength="83.57" timeLoss="3.44" maxSpeed="1.69"/>
    </personinfo>
    <personinfo id="d35" depart="31079.74" type="DEFAULT_PEDTYPE">
        <walk depart="31080.00" departPos="18.91" arrival="31084.00" arrivalPos="15.00" duration="4.00" routeLength="3.91" timeLoss="0.87" maxSpeed="1.25"/>
        <ride waitingTime="381.00" vehicle="taxi62" depart="31465.00" arrival="32468.00" arrivalPos="4.17" duration="1003.00" routeLength="17665.87" timeLoss="94.71"/>
        <walk depart="32468.00" departPos="4.17" arrival="32610.00" arrivalPos="1.00" duration="142.00" routeLength="179.39" timeLoss="-1.98" maxSpeed="1.25"/>
    </personinfo>
    <personinfo id="tp146" depart="32072.04" type="DEFAULT_PEDTYPE">
        <walk depart="32073.00" departPos="187.71" arrival="32235.00" arrivalPos="7.50" duration="162.00" routeLength="180.21" timeLoss="17.02" maxSpeed="1.24"/>
        <ride waitingTime="180.00" vehicle="taxi11" depart="32415.00" arrival="32657.00" arrivalPos="15.00" duration="242.00" routeLength="2452.36" timeLoss="50.44"/>
        <walk depart="32657.00" departPos="15.00" arrival="32659.00" arrivalPos="12.94" duration="2.00" routeLength="2.06" timeLoss="0.34" maxSpeed="1.24"/>
    </personinfo>
    <personinfo id="th146" depart="32072.04" type="DEFAULT_PEDTYPE">
        <walk depart="32073.00" departPos="215.49" arrival="32265.00" arrivalPos="7.50" duration="192.00" routeLength="207.99" timeLoss="19.18" maxSpeed="1.20"/>
        <ride waitingTime="190.00" vehicle="taxi65" depart="32455.00" arrival="32676.00" arrivalPos="15.00" duration="221.00" routeLength="2285.31" timeLoss="28.75"/>
        <walk depart="32676.00" departPos="15.00" arrival="32678.00" arrivalPos="12.94" duration="2.00" routeLength="2.06" timeLoss="0.29" maxSpeed="1.20"/>
    </personinfo>
    <personinfo id="d112" depart="32394.65" type="DEFAULT_PEDTYPE">
        <walk depart="32395.00" departPos="17.69" arrival="32401.00" arrivalPos="10.00" duration="6.00" routeLength="7.69" timeLoss="0.77" maxSpeed="1.47"/>
        <ride waitingTime="36.00" vehicle="taxi27" depart="32437.00" arrival="32621.00" arrivalPos="37.32" duration="184.00" routeLength="2064.54" timeLoss="38.58"/>
        <walk depart="32621.00" departPos="37.32" arrival="32739.00" arrivalPos="2.94" duration="118.00" routeLength="161.04" timeLoss="8.58" maxSpeed="1.47"/>
    </personinfo>
    <personinfo id="d144" depart="32585.92" type="DEFAULT_PEDTYPE">
        <walk depart="32586.00" departPos="22.29" arrival="32592.00" arrivalPos="15.00" duration="6.00" routeLength="7.29" timeLoss="0.73" maxSpeed="1.38"/>
        <ride waitingTime="61.00" vehicle="taxi18" depart="32653.00" arrival="32794.00" arrivalPos="46.08" duration="141.00" routeLength="1633.69" timeLoss="24.24"/>
        <walk depart="32794.00" departPos="46.08" arrival="32835.00" arrivalPos="70.72" duration="41.00" routeLength="53.87" timeLoss="2.03" maxSpeed="1.38"/>
    </personinfo>
    <personinfo id="d100" depart="32367.26" type="DEFAULT_PEDTYPE">
        <walk depart="32368.00" departPos="15.06" arrival="32369.00" arrivalPos="15.00" duration="1.00" routeLength="0.10" timeLoss="0.94" maxSpeed="1.56"/>
        <ride waitingTime="20.00" vehicle="taxi1" depart="32389.00" arrival="32804.00" arrivalPos="6.62" duration="415.00" routeLength="6668.93" timeLoss="44.18"/>
        <walk depart="32804.00" departPos="6.62" arrival="32855.00" arrivalPos="19.40" duration="51.00" routeLength="84.80" timeLoss="-3.24" maxSpeed="1.56"/>
    </personinfo>
    <personinfo id="d153" depart="32072.04" type="DEFAULT_PEDTYPE">
        <walk depart="32073.00" departPos="19.62" arrival="32077.00" arrivalPos="15.00" duration="4.00" routeLength="4.62" timeLoss="0.96" maxSpeed="1.52"/>
        <ride waitingTime="114.00" vehicle="taxi54" depart="32191.00" arrival="32588.00" arrivalPos="66.03" duration="397.00" routeLength="3638.73" timeLoss="90.66"/>
        <walk depart="32588.00" departPos="66.03" arrival="32912.00" arrivalPos="62.03" duration="324.00" routeLength="452.94" timeLoss="26.28" maxSpeed="1.52"/>
    </personinfo>
    <personinfo id="d91" depart="32165.36" type="DEFAULT_PEDTYPE">
        <walk depart="32166.00" departPos="3.31" arrival="32176.00" arrivalPos="15.00" duration="10.00" routeLength="11.69" timeLoss="1.59" maxSpeed="1.39"/>
        <ride waitingTime="64.00" vehicle="taxi54" depart="32240.00" arrival="32848.00" arrivalPos="15.53" duration="608.00" routeLength="6662.69" timeLoss="89.83"/>
        <walk depart="32848.00" departPos="15.53" arrival="32963.00" arrivalPos="33.80" duration="115.00" routeLength="146.19" timeLoss="9.79" maxSpeed="1.39"/>
    </personinfo>
    <personinfo id="th63" depart="30915.84" type="DEFAULT_PEDTYPE">
        <walk depart="30916.00" departPos="25.76" arrival="31387.00" arrivalPos="87.83" duration="471.00" routeLength="532.54" timeLoss="35.02" maxSpeed="1.22"/>
        <ride waitingTime="144.00" vehicle="taxi36" depart="31531.00" arrival="32884.00" arrivalPos="7.50" duration="1353.00" routeLength="19980.30" timeLoss="139.70"/>
        <walk depart="32884.00" departPos="7.50" arrival="32999.00" arrivalPos="7.10" duration="115.00" routeLength="126.94" timeLoss="11.08" maxSpeed="1.22"/>
    </personinfo>